[Molden Format]
[N_Atoms]
                    15
[Atoms] (AU)
N1          1      7          -1.37587033      1.92783271      2.74782691
N2          2      7          -2.10724704     -2.35372250      2.77360437
C3          3      6          -3.17444835      0.03413772      2.84345402
C4          4      6           0.46504183     -2.80311880      2.80879730
C5          5      6           2.18699929     -0.91420520      2.79770420
C6          6      6           4.98510991     -1.32254010      2.84236709
C7          7      6           1.27509534      1.69624052      2.81519284
O8          8      8           2.62129467      3.58553535      2.87720395
O9          9      8          -5.45670755      0.40608473      2.94789091
H10        10      1           0.99820715     -4.77533200      2.83401837
H11        11      1          -2.05866186      3.71475276      2.80796480
H12        12      1          -3.35657646     -3.79003235      2.86207680
H13        13      1           5.43478232     -3.32998391      2.83313120
H14        14      1           5.81032528     -0.46252634      4.51914901
H15        15      1           5.86623971     -0.43552192      1.20866657
[Charge] (Mulliken)
 -0.806947774869631     
 -0.631908822758223     
  0.835994232434659     
  0.123535147998190     
 -0.160165675287990     
 -0.319791744835507     
  0.674433138728449     
 -0.605487164226469     
 -0.335990251704487     
  0.164687900271245     
  0.339837956830864     
  0.338713746155772     
  0.107356979867456     
  0.137893458335143     
  0.137838873057648     
[GTO] (AU)
   1
   s   6
  0.417351146E+04  0.183477216E-02
  0.627457911E+03  0.139946270E-01
  0.142902093E+03  0.685865518E-01
  0.402343293E+02  0.232240873E+00
  0.128202129E+02  0.469069948E+00
  0.439043701E+01  0.360455199E+00
   s   3
  0.116263619E+02 -0.114961182E+00
  0.271627981E+01 -0.169117479E+00
  0.772218397E+00  0.114585195E+01
   s   1
  0.212031497E+00  0.100000000E+01
   p   3
  0.116263619E+02  0.675797439E-01
  0.271627981E+01  0.323907296E+00
  0.772218397E+00  0.740895140E+00
   p   1
  0.212031497E+00  0.100000000E+01
   d   1
  0.800000000E+00  0.100000000E+01
 
   2
   s   6
  0.417351146E+04  0.183477216E-02
  0.627457911E+03  0.139946270E-01
  0.142902093E+03  0.685865518E-01
  0.402343293E+02  0.232240873E+00
  0.128202129E+02  0.469069948E+00
  0.439043701E+01  0.360455199E+00
   s   3
  0.116263619E+02 -0.114961182E+00
  0.271627981E+01 -0.169117479E+00
  0.772218397E+00  0.114585195E+01
   s   1
  0.212031497E+00  0.100000000E+01
   p   3
  0.116263619E+02  0.675797439E-01
  0.271627981E+01  0.323907296E+00
  0.772218397E+00  0.740895140E+00
   p   1
  0.212031497E+00  0.100000000E+01
   d   1
  0.800000000E+00  0.100000000E+01
 
   3
   s   6
  0.304752488E+04  0.183473713E-02
  0.457369518E+03  0.140373228E-01
  0.103948685E+03  0.688426223E-01
  0.292101553E+02  0.232184443E+00
  0.928666296E+01  0.467941348E+00
  0.316392696E+01  0.362311985E+00
   s   3
  0.786827235E+01 -0.119332420E+00
  0.188128854E+01 -0.160854152E+00
  0.544249258E+00  0.114345644E+01
   s   1
  0.168714478E+00  0.100000000E+01
   p   3
  0.786827235E+01  0.689990666E-01
  0.188128854E+01  0.316423961E+00
  0.544249258E+00  0.744308291E+00
   p   1
  0.168714478E+00  0.100000000E+01
   d   1
  0.800000000E+00  0.100000000E+01
 
   4
   s   6
  0.304752488E+04  0.183473713E-02
  0.457369518E+03  0.140373228E-01
  0.103948685E+03  0.688426223E-01
  0.292101553E+02  0.232184443E+00
  0.928666296E+01  0.467941348E+00
  0.316392696E+01  0.362311985E+00
   s   3
  0.786827235E+01 -0.119332420E+00
  0.188128854E+01 -0.160854152E+00
  0.544249258E+00  0.114345644E+01
   s   1
  0.168714478E+00  0.100000000E+01
   p   3
  0.786827235E+01  0.689990666E-01
  0.188128854E+01  0.316423961E+00
  0.544249258E+00  0.744308291E+00
   p   1
  0.168714478E+00  0.100000000E+01
   d   1
  0.800000000E+00  0.100000000E+01
 
   5
   s   6
  0.304752488E+04  0.183473713E-02
  0.457369518E+03  0.140373228E-01
  0.103948685E+03  0.688426223E-01
  0.292101553E+02  0.232184443E+00
  0.928666296E+01  0.467941348E+00
  0.316392696E+01  0.362311985E+00
   s   3
  0.786827235E+01 -0.119332420E+00
  0.188128854E+01 -0.160854152E+00
  0.544249258E+00  0.114345644E+01
   s   1
  0.168714478E+00  0.100000000E+01
   p   3
  0.786827235E+01  0.689990666E-01
  0.188128854E+01  0.316423961E+00
  0.544249258E+00  0.744308291E+00
   p   1
  0.168714478E+00  0.100000000E+01
   d   1
  0.800000000E+00  0.100000000E+01
 
   6
   s   6
  0.304752488E+04  0.183473713E-02
  0.457369518E+03  0.140373228E-01
  0.103948685E+03  0.688426223E-01
  0.292101553E+02  0.232184443E+00
  0.928666296E+01  0.467941348E+00
  0.316392696E+01  0.362311985E+00
   s   3
  0.786827235E+01 -0.119332420E+00
  0.188128854E+01 -0.160854152E+00
  0.544249258E+00  0.114345644E+01
   s   1
  0.168714478E+00  0.100000000E+01
   p   3
  0.786827235E+01  0.689990666E-01
  0.188128854E+01  0.316423961E+00
  0.544249258E+00  0.744308291E+00
   p   1
  0.168714478E+00  0.100000000E+01
   d   1
  0.800000000E+00  0.100000000E+01
 
   7
   s   6
  0.304752488E+04  0.183473713E-02
  0.457369518E+03  0.140373228E-01
  0.103948685E+03  0.688426223E-01
  0.292101553E+02  0.232184443E+00
  0.928666296E+01  0.467941348E+00
  0.316392696E+01  0.362311985E+00
   s   3
  0.786827235E+01 -0.119332420E+00
  0.188128854E+01 -0.160854152E+00
  0.544249258E+00  0.114345644E+01
   s   1
  0.168714478E+00  0.100000000E+01
   p   3
  0.786827235E+01  0.689990666E-01
  0.188128854E+01  0.316423961E+00
  0.544249258E+00  0.744308291E+00
   p   1
  0.168714478E+00  0.100000000E+01
   d   1
  0.800000000E+00  0.100000000E+01
 
   8
   s   6
  0.548467166E+04  0.183107443E-02
  0.825234946E+03  0.139501722E-01
  0.188046958E+03  0.684450781E-01
  0.529645000E+02  0.232714336E+00
  0.168975704E+02  0.470192898E+00
  0.579963534E+01  0.358520853E+00
   s   3
  0.155396162E+02 -0.110777550E+00
  0.359993359E+01 -0.148026263E+00
  0.101376175E+01  0.113076702E+01
   s   1
  0.270005823E+00  0.100000000E+01
   p   3
  0.155396162E+02  0.708742682E-01
  0.359993359E+01  0.339752839E+00
  0.101376175E+01  0.727158577E+00
   p   1
  0.270005823E+00  0.100000000E+01
   d   1
  0.800000000E+00  0.100000000E+01
 
   9
   s   6
  0.548467166E+04  0.183107443E-02
  0.825234946E+03  0.139501722E-01
  0.188046958E+03  0.684450781E-01
  0.529645000E+02  0.232714336E+00
  0.168975704E+02  0.470192898E+00
  0.579963534E+01  0.358520853E+00
   s   3
  0.155396162E+02 -0.110777550E+00
  0.359993359E+01 -0.148026263E+00
  0.101376175E+01  0.113076702E+01
   s   1
  0.270005823E+00  0.100000000E+01
   p   3
  0.155396162E+02  0.708742682E-01
  0.359993359E+01  0.339752839E+00
  0.101376175E+01  0.727158577E+00
   p   1
  0.270005823E+00  0.100000000E+01
   d   1
  0.800000000E+00  0.100000000E+01
 
  10
   s   3
  0.187311370E+02  0.334946043E-01
  0.282539437E+01  0.234726954E+00
  0.640121692E+00  0.813757326E+00
   s   1
  0.161277759E+00  0.100000000E+01
   p   1
  0.110000000E+01  0.100000000E+01
 
  11
   s   3
  0.187311370E+02  0.334946043E-01
  0.282539437E+01  0.234726954E+00
  0.640121692E+00  0.813757326E+00
   s   1
  0.161277759E+00  0.100000000E+01
   p   1
  0.110000000E+01  0.100000000E+01
 
  12
   s   3
  0.187311370E+02  0.334946043E-01
  0.282539437E+01  0.234726954E+00
  0.640121692E+00  0.813757326E+00
   s   1
  0.161277759E+00  0.100000000E+01
   p   1
  0.110000000E+01  0.100000000E+01
 
  13
   s   3
  0.187311370E+02  0.334946043E-01
  0.282539437E+01  0.234726954E+00
  0.640121692E+00  0.813757326E+00
   s   1
  0.161277759E+00  0.100000000E+01
   p   1
  0.110000000E+01  0.100000000E+01
 
  14
   s   3
  0.187311370E+02  0.334946043E-01
  0.282539437E+01  0.234726954E+00
  0.640121692E+00  0.813757326E+00
   s   1
  0.161277759E+00  0.100000000E+01
   p   1
  0.110000000E+01  0.100000000E+01
 
  15
   s   3
  0.187311370E+02  0.334946043E-01
  0.282539437E+01  0.234726954E+00
  0.640121692E+00  0.813757326E+00
   s   1
  0.161277759E+00  0.100000000E+01
   p   1
  0.110000000E+01  0.100000000E+01
 
[MO]
Sym=     1a  
Ene=   -20.6330
Spin= Alpha
Occup=    2.00000
   1        -0.00000979
   2        -0.00003840
   3         0.00023915
   4         0.00002275
   5         0.00001913
   6         0.00000175
   7        -0.00009013
   8        -0.00014656
   9         0.00000968
  10        -0.00011620
  11         0.00010719
  12        -0.00004977
  13        -0.00000526
  14         0.00000179
  15        -0.00000224
  16        -0.00001171
  17        -0.00004645
  18         0.00027108
  19         0.00001582
  20        -0.00002803
  21         0.00000243
  22        -0.00001754
  23         0.00013792
  24         0.00000903
  25        -0.00008503
  26         0.00006880
  27        -0.00005526
  28         0.00008345
  29         0.00000193
  30        -0.00000115
  31        -0.00000962
  32         0.00051435
  33        -0.00081333
  34         0.00004250
  35        -0.00000891
  36        -0.00000038
  37         0.00055457
  38        -0.00009030
  39        -0.00001835
  40        -0.00085503
  41        -0.00005677
  42        -0.00005473
  43         0.00015107
  44         0.00004342
  45        -0.00000703
  46         0.00000780
  47         0.00004401
  48        -0.00037581
  49        -0.00002835
  50         0.00001037
  51        -0.00000011
  52         0.00000149
  53        -0.00033667
  54         0.00000154
  55         0.00003738
  56        -0.00002147
  57         0.00001760
  58         0.00001748
  59         0.00000140
  60         0.00000059
  61        -0.00000353
  62        -0.00002527
  63         0.00058413
  64        -0.00000954
  65         0.00000721
  66        -0.00000006
  67        -0.00029318
  68         0.00003675
  69         0.00000434
  70         0.00001573
  71        -0.00001126
  72        -0.00000109
  73        -0.00000690
  74        -0.00000018
  75         0.00000009
  76         0.00000099
  77         0.00000614
  78         0.00004935
  79         0.00000052
  80         0.00000051
  81         0.00000034
  82        -0.00000982
  83         0.00000115
  84        -0.00000350
  85        -0.00000467
  86         0.00000317
  87         0.00000179
  88         0.00000140
  89         0.00000007
  90        -0.00000015
  91         0.00001253
  92         0.00004940
  93        -0.00019266
  94        -0.00003020
  95         0.00000275
  96        -0.00000041
  97         0.00016797
  98         0.00042955
  99         0.00000377
 100         0.00004636
 101         0.00000851
 102         0.00002343
 103        -0.00001789
 104         0.00000252
 105        -0.00000050
 106         0.00001275
 107         0.00006008
 108        -0.00038617
 109        -0.00000518
 110        -0.00000306
 111        -0.00000030
 112         0.00006638
 113         0.00006296
 114         0.00000428
 115         0.00003472
 116         0.00003466
 117         0.00003658
 118        -0.00000452
 119        -0.00000027
 120        -0.00000019
 121         0.99467866
 122         0.02099624
 123         0.00473079
 124         0.00158537
 125        -0.00025643
 126        -0.00007236
 127         0.00003324
 128        -0.00000797
 129        -0.00000155
 130        -0.00361563
 131        -0.00406637
 132        -0.00409716
 133        -0.00008946
 134        -0.00002477
 135         0.00000424
 136        -0.00000629
 137        -0.00010437
 138         0.00000277
 139         0.00000942
 140         0.00000010
 141        -0.00002649
 142        -0.00002768
 143        -0.00002754
 144         0.00003337
 145         0.00000193
 146        -0.00003046
 147        -0.00002501
 148        -0.00003405
 149        -0.00002250
 150         0.00000255
 151        -0.00000170
 152         0.00000532
 153        -0.00000176
 154        -0.00000059
 155         0.00000021
 156         0.00000193
 157        -0.00000340
 158        -0.00000049
 159         0.00000015
 160         0.00000103
 161         0.00000127
 162        -0.00000571
 163        -0.00000057
 164         0.00000044
 165        -0.00000106
Sym=     2a  
Ene=   -20.5610
Spin= Alpha
Occup=    2.00000
   1        -0.00001009
   2        -0.00003288
   3         0.00015694
   4        -0.00004720
   5        -0.00000261
   6        -0.00000007
   7         0.00021191
   8         0.00007588
   9         0.00000518
  10        -0.00004453
  11         0.00000298
  12        -0.00005078
  13        -0.00010139
  14         0.00000134
  15        -0.00000028
  16        -0.00000078
  17        -0.00000198
  18         0.00014828
  19         0.00000196
  20         0.00000613
  21        -0.00000060
  22        -0.00003005
  23         0.00005044
  24         0.00000488
  25        -0.00001229
  26         0.00000137
  27         0.00000552
  28         0.00001404
  29        -0.00000006
  30        -0.00000007
  31         0.00001049
  32         0.00003861
  33         0.00003572
  34         0.00002145
  35         0.00002410
  36        -0.00000152
  37        -0.00025206
  38         0.00018167
  39         0.00000206
  40         0.00001469
  41         0.00004330
  42         0.00001887
  43         0.00002282
  44        -0.00000198
  45        -0.00000270
  46         0.00000160
  47         0.00002018
  48         0.00010441
  49         0.00001614
  50         0.00001562
  51        -0.00000009
  52         0.00001885
  53         0.00001938
  54        -0.00000180
  55         0.00002800
  56        -0.00002423
  57         0.00000332
  58         0.00002064
  59        -0.00000016
  60         0.00000010
  61        -0.00000103
  62        -0.00000420
  63        -0.00018299
  64        -0.00001579
  65        -0.00001892
  66        -0.00000032
  67         0.00022479
  68         0.00001297
  69         0.00000478
  70         0.00004521
  71        -0.00004827
  72        -0.00001880
  73        -0.00006940
  74         0.00000056
  75        -0.00000161
  76         0.00000308
  77         0.00001683
  78        -0.00009183
  79         0.00001098
  80         0.00001873
  81         0.00000045
  82         0.00008675
  83        -0.00012110
  84         0.00000050
  85        -0.00001899
  86         0.00001483
  87         0.00000549
  88        -0.00000482
  89        -0.00000055
  90        -0.00000002
  91        -0.00000975
  92         0.00049395
  93        -0.00058287
  94        -0.00002707
  95        -0.00001811
  96        -0.00000083
  97        -0.00029303
  98        -0.00072525
  99        -0.00001385
 100        -0.00030757
 101        -0.00054398
 102        -0.00006323
 103        -0.00041547
 104        -0.00001362
 105        -0.00001908
 106         0.99466765
 107         0.02097789
 108         0.00485585
 109        -0.00092930
 110        -0.00123212
 111        -0.00004239
 112        -0.00002442
 113        -0.00003085
 114        -0.00000096
 115        -0.00390924
 116        -0.00378771
 117        -0.00415180
 118         0.00019911
 119         0.00001033
 120         0.00001013
 121         0.00001166
 122         0.00005219
 123        -0.00031921
 124         0.00000528
 125        -0.00000037
 126        -0.00000129
 127        -0.00008586
 128        -0.00000699
 129         0.00000660
 130         0.00002369
 131         0.00003362
 132         0.00003294
 133         0.00000082
 134         0.00000069
 135        -0.00000012
 136         0.00000614
 137        -0.00000112
 138        -0.00000441
 139         0.00000906
 140         0.00000000
 141        -0.00003002
 142        -0.00004468
 143        -0.00000937
 144         0.00003208
 145         0.00000170
 146        -0.00000940
 147        -0.00000395
 148        -0.00000096
 149        -0.00000462
 150        -0.00000011
 151        -0.00001311
 152        -0.00007392
 153        -0.00000113
 154        -0.00000904
 155        -0.00000006
 156         0.00002381
 157        -0.00001830
 158        -0.00000112
 159         0.00001095
 160         0.00000039
 161         0.00002321
 162        -0.00001529
 163        -0.00000138
 164         0.00001110
 165         0.00000010
Sym=     3a  
Ene=   -15.6410
Spin= Alpha
Occup=    2.00000
   1        -0.00131371
   2        -0.00001810
   3        -0.00074724
   4         0.00005135
   5         0.00002750
   6         0.00000262
   7        -0.00068574
   8         0.00046900
   9         0.00000897
  10         0.00006639
  11         0.00004061
  12        -0.00001098
  13        -0.00000334
  14        -0.00000851
  15         0.00000358
  16         0.99500435
  17         0.02540782
  18        -0.00474188
  19        -0.00005807
  20         0.00017302
  21         0.00015623
  22        -0.00066763
  23        -0.00141964
  24        -0.00008063
  25        -0.00331988
  26        -0.00331308
  27        -0.00329544
  28         0.00007791
  29        -0.00000769
  30        -0.00001271
  31         0.00001065
  32         0.00021493
  33         0.00172197
  34         0.00011962
  35        -0.00022744
  36         0.00001283
  37         0.00136655
  38        -0.00164013
  39        -0.00004641
  40        -0.00005617
  41        -0.00017011
  42        -0.00006883
  43         0.00002980
  44        -0.00000215
  45        -0.00000703
  46         0.00000709
  47         0.00012637
  48         0.00266773
  49        -0.00020676
  50         0.00002279
  51         0.00001477
  52        -0.00090783
  53         0.00160563
  54         0.00000015
  55        -0.00011113
  56        -0.00000485
  57        -0.00008803
  58        -0.00000998
  59        -0.00000419
  60        -0.00000227
  61         0.00002628
  62         0.00013226
  63        -0.00206156
  64        -0.00000421
  65         0.00004097
  66         0.00000739
  67         0.00161921
  68        -0.00036677
  69         0.00000030
  70        -0.00002568
  71         0.00002513
  72         0.00002919
  73        -0.00001868
  74         0.00000183
  75         0.00000005
  76        -0.00000602
  77        -0.00000657
  78        -0.00052327
  79         0.00003173
  80         0.00000269
  81         0.00000023
  82         0.00013253
  83        -0.00002231
  84         0.00001675
  85        -0.00000979
  86        -0.00001870
  87        -0.00002532
  88        -0.00000712
  89        -0.00000051
  90         0.00000097
  91        -0.00000501
  92        -0.00004263
  93         0.00138902
  94        -0.00002837
  95        -0.00000961
  96         0.00000199
  97        -0.00045637
  98        -0.00083115
  99        -0.00004483
 100         0.00000918
 101         0.00002238
 102        -0.00001125
 103        -0.00000747
 104         0.00000306
 105         0.00000017
 106        -0.00001486
 107        -0.00006339
 108         0.00043102
 109         0.00001164
 110         0.00000047
 111        -0.00000501
 112        -0.00007293
 113        -0.00002211
 114         0.00000476
 115        -0.00003166
 116        -0.00005139
 117        -0.00004454
 118        -0.00000254
 119         0.00000005
 120        -0.00000158
 121        -0.00002854
 122        -0.00016197
 123         0.00097135
 124        -0.00003499
 125        -0.00001459
 126         0.00000712
 127         0.00023641
 128         0.00031613
 129        -0.00000579
 130        -0.00006783
 131        -0.00010673
 132        -0.00012342
 133         0.00008091
 134        -0.00000233
 135        -0.00000436
 136         0.00001595
 137         0.00044018
 138         0.00005509
 139        -0.00001326
 140        -0.00000021
 141        -0.00009633
 142         0.00000759
 143         0.00000811
 144         0.00000309
 145         0.00000311
 146         0.00011568
 147         0.00000447
 148        -0.00009634
 149        -0.00011489
 150         0.00001605
 151        -0.00000375
 152         0.00005360
 153        -0.00000025
 154         0.00000757
 155        -0.00000094
 156         0.00000733
 157         0.00001233
 158         0.00000591
 159        -0.00000213
 160        -0.00000913
 161         0.00001114
 162         0.00001701
 163         0.00000650
 164        -0.00000362
 165         0.00000880
Sym=     4a  
Ene=   -15.6330
Spin= Alpha
Occup=    2.00000
   1         0.99501553
   2         0.02544041
   3        -0.00520295
   4        -0.00020218
   5        -0.00017462
   6         0.00016518
   7        -0.00032391
   8         0.00147642
   9        -0.00012379
  10        -0.00336188
  11        -0.00324032
  12        -0.00327508
  13        -0.00002540
  14        -0.00000607
  15         0.00001473
  16         0.00134408
  17         0.00004144
  18        -0.00067237
  19         0.00003701
  20        -0.00004452
  21         0.00000667
  22        -0.00077727
  23        -0.00020512
  24         0.00001363
  25         0.00005513
  26         0.00002829
  27        -0.00002440
  28        -0.00000664
  29        -0.00000909
  30        -0.00000091
  31         0.00000809
  32         0.00021889
  33         0.00167555
  34         0.00017549
  35         0.00015785
  36         0.00001347
  37         0.00188298
  38         0.00107595
  39        -0.00005791
  40        -0.00010676
  41        -0.00016845
  42        -0.00007274
  43        -0.00009068
  44         0.00000271
  45         0.00001119
  46         0.00000336
  47        -0.00001020
  48         0.00168744
  49        -0.00001235
  50         0.00002053
  51         0.00000491
  52        -0.00002453
  53         0.00069105
  54        -0.00002624
  55         0.00002581
  56         0.00002978
  57         0.00000035
  58         0.00001605
  59         0.00000195
  60        -0.00000275
  61         0.00001797
  62         0.00008108
  63        -0.00157681
  64        -0.00001845
  65        -0.00004918
  66         0.00000827
  67         0.00158593
  68         0.00022998
  69        -0.00000097
  70        -0.00002081
  71         0.00001297
  72         0.00001279
  73         0.00002075
  74         0.00000190
  75         0.00000102
  76        -0.00001304
  77        -0.00003939
  78        -0.00041779
  79         0.00003670
  80        -0.00003396
  81        -0.00000100
  82         0.00011122
  83         0.00011558
  84         0.00002385
  85        -0.00001889
  86        -0.00003023
  87        -0.00003254
  88         0.00000531
  89        -0.00000029
  90         0.00000138
  91        -0.00001015
  92         0.00007539
  93         0.00190778
  94        -0.00022160
  95         0.00000657
  96         0.00001420
  97        -0.00219796
  98        -0.00113171
  99        -0.00002402
 100        -0.00008146
 101        -0.00006894
 102        -0.00009787
 103         0.00002168
 104        -0.00000439
 105         0.00000465
 106        -0.00003883
 107        -0.00020690
 108         0.00136645
 109         0.00002449
 110         0.00001770
 111         0.00001153
 112         0.00008444
 113        -0.00038095
 114        -0.00000380
 115        -0.00017105
 116        -0.00006259
 117        -0.00013386
 118        -0.00001951
 119        -0.00000221
 120         0.00000208
 121        -0.00003150
 122        -0.00017336
 123         0.00105719
 124        -0.00002704
 125         0.00002812
 126         0.00000821
 127         0.00014872
 128        -0.00037588
 129        -0.00000350
 130        -0.00011859
 131        -0.00006798
 132        -0.00013129
 133        -0.00008511
 134        -0.00000025
 135         0.00000467
 136        -0.00001045
 137         0.00010128
 138        -0.00000550
 139        -0.00001271
 140         0.00000159
 141         0.00014383
 142         0.00004697
 143        -0.00005324
 144         0.00013114
 145         0.00001382
 146        -0.00009488
 147        -0.00000155
 148         0.00000226
 149        -0.00000396
 150         0.00000363
 151         0.00002361
 152         0.00008594
 153         0.00000272
 154         0.00001180
 155        -0.00000140
 156        -0.00001678
 157        -0.00001182
 158         0.00000702
 159        -0.00000879
 160        -0.00000450
 161        -0.00001352
 162         0.00000592
 163         0.00000679
 164        -0.00001086
 165         0.00000487
Sym=     5a  
Ene=   -11.3910
Spin= Alpha
Occup=    2.00000
   1        -0.00025643
   2         0.00026288
   3         0.00030953
   4        -0.00007339
   5        -0.00012391
   6        -0.00001817
   7         0.00114014
   8         0.00094521
   9        -0.00009489
  10        -0.00041240
  11        -0.00051184
  12         0.00006461
  13        -0.00018939
  14         0.00003001
  15         0.00002573
  16        -0.00024106
  17         0.00031836
  18        -0.00000820
  19        -0.00002616
  20         0.00013476
  21        -0.00002125
  22         0.00033523
  23        -0.00095895
  24        -0.00008312
  25        -0.00035311
  26        -0.00054509
  27         0.00010091
  28         0.00012047
  29         0.00001625
  30        -0.00002042
  31         0.99570939
  32         0.02698487
  33        -0.00219893
  34        -0.00019101
  35         0.00007955
  36        -0.00004622
  37        -0.00409457
  38         0.00077818
  39         0.00013813
  40        -0.00062229
  41        -0.00149353
  42        -0.00249533
  43        -0.00014820
  44        -0.00010214
  45         0.00000753
  46        -0.00016791
  47        -0.00050973
  48         0.00366018
  49         0.00010541
  50        -0.00011394
  51        -0.00000852
  52         0.00004649
  53         0.00393756
  54         0.00002119
  55         0.00010248
  56         0.00006816
  57        -0.00018464
  58        -0.00005281
  59         0.00000019
  60         0.00000173
  61         0.00002161
  62         0.00033742
  63        -0.00623821
  64         0.00004306
  65        -0.00000887
  66         0.00000260
  67         0.00380554
  68        -0.00049261
  69        -0.00006277
  70        -0.00011683
  71        -0.00002215
  72         0.00006221
  73         0.00000924
  74         0.00000347
  75        -0.00000141
  76        -0.00000437
  77        -0.00001637
  78        -0.00107100
  79         0.00002769
  80        -0.00001045
  81        -0.00000146
  82         0.00033913
  83        -0.00007902
  84         0.00004404
  85         0.00002080
  86        -0.00001921
  87        -0.00001580
  88        -0.00000847
  89        -0.00000328
  90         0.00000134
  91        -0.00029737
  92        -0.00057143
  93         0.00167945
  94         0.00012107
  95         0.00003357
  96        -0.00001340
  97        -0.00144871
  98        -0.00448785
  99         0.00002547
 100        -0.00004042
 101        -0.00009474
 102        -0.00020672
 103        -0.00000588
 104        -0.00000174
 105        -0.00000153
 106        -0.00011569
 107        -0.00051532
 108         0.00369948
 109         0.00001048
 110        -0.00000493
 111         0.00000577
 112        -0.00064659
 113        -0.00052333
 114        -0.00006479
 115        -0.00029611
 116        -0.00032773
 117        -0.00027839
 118         0.00005342
 119         0.00000420
 120         0.00000615
 121        -0.00016565
 122         0.00104732
 123        -0.00591006
 124         0.00025068
 125        -0.00003979
 126        -0.00004371
 127        -0.00271512
 128         0.00043305
 129         0.00012888
 130         0.00003395
 131         0.00050765
 132         0.00064105
 133         0.00009709
 134         0.00003511
 135        -0.00000549
 136         0.00019960
 137         0.00136513
 138        -0.00004263
 139        -0.00001640
 140        -0.00000487
 141         0.00002899
 142         0.00018480
 143        -0.00003535
 144        -0.00022736
 145         0.00000434
 146         0.00006087
 147         0.00006910
 148         0.00003339
 149         0.00021841
 150         0.00000014
 151         0.00002976
 152        -0.00007676
 153         0.00001795
 154         0.00000231
 155        -0.00000229
 156        -0.00000450
 157         0.00005271
 158         0.00000384
 159        -0.00000268
 160        -0.00001189
 161         0.00000103
 162         0.00008015
 163         0.00000539
 164        -0.00000522
 165         0.00001182
Sym=     6a  
Ene=   -11.3200
Spin= Alpha
Occup=    2.00000
   1        -0.00024282
   2         0.00027078
   3         0.00126164
   4         0.00019850
   5         0.00003464
   6         0.00000372
   7        -0.00306241
   8        -0.00146856
   9        -0.00002111
  10        -0.00093317
  11        -0.00025308
  12         0.00004977
  13         0.00004790
  14        -0.00004896
  15        -0.00001102
  16         0.00003339
  17         0.00014784
  18        -0.00185923
  19        -0.00004256
  20         0.00001032
  21         0.00000774
  22         0.00070742
  23        -0.00138605
  24        -0.00006873
  25         0.00007391
  26        -0.00001267
  27         0.00005293
  28        -0.00003288
  29         0.00000711
  30        -0.00000653
  31         0.00008624
  32        -0.00049146
  33        -0.00082770
  34        -0.00012330
  35        -0.00011772
  36        -0.00000529
  37         0.00269632
  38        -0.00312249
  39         0.00002439
  40        -0.00012289
  41        -0.00004151
  42        -0.00020685
  43         0.00003814
  44         0.00000626
  45         0.00000322
  46        -0.00007452
  47        -0.00021523
  48        -0.00089552
  49        -0.00005817
  50        -0.00009324
  51        -0.00000006
  52         0.00107648
  53        -0.00018087
  54         0.00003153
  55         0.00003577
  56         0.00009995
  57        -0.00007679
  58         0.00000653
  59        -0.00000489
  60         0.00000029
  61         0.00412354
  62        -0.00000471
  63         0.00570340
  64         0.00013774
  65        -0.00004554
  66         0.00000204
  67        -0.00356949
  68         0.00351887
  69        -0.00002800
  70        -0.00030261
  71        -0.00039164
  72        -0.00016494