 Entering Gaussian System, Link 0=/shared/gaussian/g16.b01/AVX2/g16/g16
 Initial command:
 /shared/gaussian/g16.b01/AVX2/g16/l1.exe "/scratch/marlene/SCRGAU.142621.Uracil6311-es2/Gau-17187.inp" -scrdir="/scratch/marlene/SCRGAU.142621.Uracil6311-es2/"
 Entering Link 1 = /shared/gaussian/g16.b01/AVX2/g16/l1.exe PID=     17188.
  
 Copyright (c) 1988-2017, Gaussian, Inc.  All Rights Reserved.
  
 This is part of the Gaussian(R) 16 program.  It is based on
 the Gaussian(R) 09 system (copyright 2009, Gaussian, Inc.),
 the Gaussian(R) 03 system (copyright 2003, Gaussian, Inc.),
 the Gaussian(R) 98 system (copyright 1998, Gaussian, Inc.),
 the Gaussian(R) 94 system (copyright 1995, Gaussian, Inc.),
 the Gaussian 92(TM) system (copyright 1992, Gaussian, Inc.),
 the Gaussian 90(TM) system (copyright 1990, Gaussian, Inc.),
 the Gaussian 88(TM) system (copyright 1988, Gaussian, Inc.),
 the Gaussian 86(TM) system (copyright 1986, Carnegie Mellon
 University), and the Gaussian 82(TM) system (copyright 1983,
 Carnegie Mellon University). Gaussian is a federally registered
 trademark of Gaussian, Inc.
  
 This software contains proprietary and confidential information,
 including trade secrets, belonging to Gaussian, Inc.
  
 This software is provided under written license and may be
 used, copied, transmitted, or stored only in accord with that
 written license.
  
 The following legend is applicable only to US Government
 contracts under FAR:
  
                    RESTRICTED RIGHTS LEGEND
  
 Use, reproduction and disclosure by the US Government is
 subject to restrictions as set forth in subparagraphs (a)
 and (c) of the Commercial Computer Software - Restricted
 Rights clause in FAR 52.227-19.
  
 Gaussian, Inc.
 340 Quinnipiac St., Bldg. 40, Wallingford CT 06492
  
  
 ---------------------------------------------------------------
 Warning -- This program may not be used in any manner that
 competes with the business of Gaussian, Inc. or will provide
 assistance to any competitor of Gaussian, Inc.  The licensee
 of this program is prohibited from giving any competitor of
 Gaussian, Inc. access to this program.  By using this program,
 the user acknowledges that Gaussian, Inc. is engaged in the
 business of creating and licensing software in the field of
 computational chemistry and represents and warrants to the
 licensee that it is not a competitor of Gaussian, Inc. and that
 it will not use this program in any manner prohibited above.
 ---------------------------------------------------------------
  

 Cite this work as:
 Gaussian 16, Revision B.01,
 M. J. Frisch, G. W. Trucks, H. B. Schlegel, G. E. Scuseria, 
 M. A. Robb, J. R. Cheeseman, G. Scalmani, V. Barone, 
 G. A. Petersson, H. Nakatsuji, X. Li, M. Caricato, A. V. Marenich, 
 J. Bloino, B. G. Janesko, R. Gomperts, B. Mennucci, H. P. Hratchian, 
 J. V. Ortiz, A. F. Izmaylov, J. L. Sonnenberg, D. Williams-Young, 
 F. Ding, F. Lipparini, F. Egidi, J. Goings, B. Peng, A. Petrone, 
 T. Henderson, D. Ranasinghe, V. G. Zakrzewski, J. Gao, N. Rega, 
 G. Zheng, W. Liang, M. Hada, M. Ehara, K. Toyota, R. Fukuda, 
 J. Hasegawa, M. Ishida, T. Nakajima, Y. Honda, O. Kitao, H. Nakai, 
 T. Vreven, K. Throssell, J. A. Montgomery, Jr., J. E. Peralta, 
 F. Ogliaro, M. J. Bearpark, J. J. Heyd, E. N. Brothers, K. N. Kudin, 
 V. N. Staroverov, T. A. Keith, R. Kobayashi, J. Normand, 
 K. Raghavachari, A. P. Rendell, J. C. Burant, S. S. Iyengar, 
 J. Tomasi, M. Cossi, J. M. Millam, M. Klene, C. Adamo, R. Cammi, 
 J. W. Ochterski, R. L. Martin, K. Morokuma, O. Farkas, 
 J. B. Foresman, and D. J. Fox, Gaussian, Inc., Wallingford CT, 2016.
 
 ******************************************
 Gaussian 16:  ES64L-G16RevB.01 20-Dec-2017
                22-Nov-2022 
 ******************************************
 %nprocshared=50
 Will use up to   50 processors via shared memory.
 %mem=5GB
 %chk=Uracil6311-es2.chk
 ----------------------------------------------------------------
 #p freq td=(nstates=10,root=2) cam-b3lyp/6-311+G(d,p) symm=loose
 ----------------------------------------------------------------
 1/10=4,30=1,38=1/1,3;
 2/12=2,17=4,18=3,40=1/2;
 3/5=4,6=6,7=111,11=9,25=1,30=1,71=2,74=-40,140=1/1,2,3,8;
 4//1;
 5/5=2,38=5,98=1/2;
 8/6=1,10=2,107=2,108=10/1;
 9/8=2,15=3,41=10,42=1,70=2/14;
 10/5=2004,20=4,28=2/2;
 11/6=1,8=1,12=-2,16=1,42=3/1,2,10;
 10/6=3,21=1,28=2/2,14;
 6/7=2,8=2,9=2,10=2/1;
 7/8=1,10=1,12=6,13=8,14=2,25=1,44=2/1,2,3,16;
 1/10=4,30=1/3;
 99//99;
 Leave Link    1 at Tue Nov 22 14:26:21 2022, MaxMem=   671088640 cpu:               1.7 elap:               0.0
 (Enter /shared/gaussian/g16.b01/AVX2/g16/l101.exe)
 ----------------------------
 Uracil TDDFT excited state 2
 ----------------------------
 Symbolic Z-matrix:
 Charge =  0 Multiplicity = 1
 C                    -1.22827   0.36085   0. 
 C                     0.05585  -1.70024   0. 
 C                     1.23475  -1.065     0. 
 C                     1.27019   0.39091   0. 
 N                    -0.00036   0.98616   0. 
 H                    -0.02532  -2.77927   0. 
 H                     2.17307  -1.59667   0. 
 O                     2.26597   1.0768    0. 
 O                    -2.284     0.94628   0. 
 N                    -1.13665  -1.02137   0. 
 H                    -2.01858  -1.50972   0. 
 H                    -0.02256   1.99783   0. 
 
 ITRead=  0  0  0  0  0  0  0  0  0  0  0  0
 MicOpt= -1 -1 -1 -1 -1 -1 -1 -1 -1 -1 -1 -1
 NAtoms=     12 NQM=       12 NQMF=       0 NMMI=      0 NMMIF=      0
                NMic=       0 NMicF=      0.
                    Isotopes and Nuclear Properties:
 (Nuclear quadrupole moments (NQMom) in fm**2, nuclear magnetic moments (NMagM)
  in nuclear magnetons)

  Atom         1           2           3           4           5           6           7           8           9          10
 IAtWgt=          12          12          12          12          14           1           1          16          16          14
 AtmWgt=  12.0000000  12.0000000  12.0000000  12.0000000  14.0030740   1.0078250   1.0078250  15.9949146  15.9949146  14.0030740
 NucSpn=           0           0           0           0           2           1           1           0           0           2
 AtZEff=  -0.0000000  -0.0000000  -0.0000000  -0.0000000  -0.0000000  -0.0000000  -0.0000000  -0.0000000  -0.0000000  -0.0000000
 NQMom=    0.0000000   0.0000000   0.0000000   0.0000000   2.0440000   0.0000000   0.0000000   0.0000000   0.0000000   2.0440000
 NMagM=    0.0000000   0.0000000   0.0000000   0.0000000   0.4037610   2.7928460   2.7928460   0.0000000   0.0000000   0.4037610
 AtZNuc=   6.0000000   6.0000000   6.0000000   6.0000000   7.0000000   1.0000000   1.0000000   8.0000000   8.0000000   7.0000000

  Atom        11          12
 IAtWgt=           1           1
 AtmWgt=   1.0078250   1.0078250
 NucSpn=           1           1
 AtZEff=  -0.0000000  -0.0000000
 NQMom=    0.0000000   0.0000000
 NMagM=    2.7928460   2.7928460
 AtZNuc=   1.0000000   1.0000000
 Leave Link  101 at Tue Nov 22 14:26:22 2022, MaxMem=   671088640 cpu:               5.9 elap:               0.1
 (Enter /shared/gaussian/g16.b01/AVX2/g16/l103.exe)

 GradGradGradGradGradGradGradGradGradGradGradGradGradGradGradGradGradGrad
 Berny optimization.
 Initialization pass.
 Trust Radius=3.00D-01 FncErr=1.00D-07 GrdErr=1.00D-07 EigMax=2.50D+02 EigMin=1.00D-04
 Number of steps in this run=      2 maximum allowed number of steps=      2.
 GradGradGradGradGradGradGradGradGradGradGradGradGradGradGradGradGradGrad

 Leave Link  103 at Tue Nov 22 14:26:22 2022, MaxMem=   671088640 cpu:               1.0 elap:               0.0
 (Enter /shared/gaussian/g16.b01/AVX2/g16/l202.exe)
                          Input orientation:                          
 ---------------------------------------------------------------------
 Center     Atomic      Atomic             Coordinates (Angstroms)
 Number     Number       Type             X           Y           Z
 ---------------------------------------------------------------------
      1          6           0       -1.228274    0.360852    0.000000
      2          6           0        0.055847   -1.700239    0.000000
      3          6           0        1.234753   -1.065003    0.000000
      4          6           0        1.270191    0.390911    0.000000
      5          7           0       -0.000359    0.986164    0.000000
      6          1           0       -0.025317   -2.779266    0.000000
      7          1           0        2.173067   -1.596674    0.000000
      8          8           0        2.265971    1.076801    0.000000
      9          8           0       -2.283998    0.946280    0.000000
     10          7           0       -1.136647   -1.021375    0.000000
     11          1           0       -2.018580   -1.509722    0.000000
     12          1           0       -0.022563    1.997828    0.000000
 ---------------------------------------------------------------------
                    Distance matrix (angstroms):
                    1          2          3          4          5
     1  C    0.000000
     2  C    2.428387   0.000000
     3  C    2.845973   1.339158   0.000000
     4  C    2.498646   2.418169   1.456345   0.000000
     5  N    1.377966   2.686991   2.394324   1.403076   0.000000
     6  H    3.362655   1.082075   2.127551   3.424670   3.765513
     7  H    3.924414   2.119751   1.078474   2.183044   3.375623
     8  O    3.566838   3.549169   2.377127   1.209141   2.268142
     9  O    1.207178   3.532554   4.053007   3.597318   2.283987
    10  N    1.385261   1.372187   2.371801   2.790595   2.306808
    11  H    2.030672   2.083157   3.283588   3.798476   3.209776
    12  H    2.033084   3.698898   3.310857   2.062376   1.011908
                    6          7          8          9         10
     6  H    0.000000
     7  H    2.496280   0.000000
     8  O    4.485449   2.675089   0.000000
     9  O    4.356757   5.131476   4.551841   0.000000
    10  N    2.079720   3.359342   3.997518   2.277736   0.000000
    11  H    2.363226   4.192549   5.004746   2.470302   1.008111
    12  H    4.777095   4.212035   2.466917   2.493961   3.218194
                   11         12
    11  H    0.000000
    12  H    4.035714   0.000000
 Stoichiometry    C4H4N2O2
 Framework group  CS[SG(C4H4N2O2)]
 Deg. of freedom    21
 Full point group                 CS      NOp   2
 Largest Abelian subgroup         CS      NOp   2
 Largest concise Abelian subgroup C1      NOp   1
                         Standard orientation:                         
 ---------------------------------------------------------------------
 Center     Atomic      Atomic             Coordinates (Angstroms)
 Number     Number       Type             X           Y           Z
 ---------------------------------------------------------------------
      1          6           0       -1.228126    0.361792   -0.000000
      2          6           0        0.055301   -1.699731    0.000000
      3          6           0        1.234421   -1.064892    0.000000
      4          6           0        1.270349    0.391010    0.000000
      5          7           0       -0.000000    0.986691    0.000000
      6          1           0       -0.026226   -2.778731   -0.000000
      7          1           0        2.172556   -1.596879    0.000000
      8          8           0        2.266360    1.076564    0.000000
      9          8           0       -2.283652    0.947576   -0.000000
     10          7           0       -1.136964   -1.020466   -0.000000
     11          1           0       -2.019061   -1.508516   -0.000000
     12          1           0       -0.021863    1.998362   -0.000000
 ---------------------------------------------------------------------
 Rotational constants (GHZ):           3.9115689           2.0340469           1.3381818
 Leave Link  202 at Tue Nov 22 14:26:22 2022, MaxMem=   671088640 cpu:               0.5 elap:               0.0
 (Enter /shared/gaussian/g16.b01/AVX2/g16/l301.exe)
 Standard basis: 6-311+G(d,p) (5D, 7F)
 Ernie: Thresh=  0.10000D-02 Tol=  0.10000D-05 Strict=F.
 There are   156 symmetry adapted cartesian basis functions of A'  symmetry.
 There are    52 symmetry adapted cartesian basis functions of A"  symmetry.
 There are   148 symmetry adapted basis functions of A'  symmetry.
 There are    52 symmetry adapted basis functions of A"  symmetry.
   200 basis functions,   320 primitive gaussians,   208 cartesian basis functions
    29 alpha electrons       29 beta electrons
       nuclear repulsion energy       357.7652694771 Hartrees.
 IExCor=20419 DFT=T Ex+Corr=CAM-B3LYP ExCW=0 ScaHFX=  1.000000
 ScaDFX=  1.000000  1.000000  1.000000  0.810000 ScalE2=  1.000000  1.000000
 IRadAn=      5 IRanWt=     -1 IRanGd=            0 ICorTp=0 IEmpDi=  4
 HFx  wShort=  0.000000 wLong=  0.330000 cFull=  0.190000 cShort=  0.000000 cLong=  0.460000
 DFx  wShort=  0.000000 wLong=  0.330000 cFull=  0.190000 cShort=  0.000000 cLong=  0.460000
 NAtoms=   12 NActive=   12 NUniq=   12 SFac= 1.00D+00 NAtFMM=   60 NAOKFM=F Big=F
 Integral buffers will be    131072 words long.
 Raffenetti 1 integral format.
 Two-electron integral symmetry is turned on.
 Leave Link  301 at Tue Nov 22 14:26:22 2022, MaxMem=   671088640 cpu:               2.1 elap:               0.1
 (Enter /shared/gaussian/g16.b01/AVX2/g16/l302.exe)
 NPDir=0 NMtPBC=     1 NCelOv=     1 NCel=       1 NClECP=     1 NCelD=      1
         NCelK=      1 NCelE2=     1 NClLst=     1 CellRange=     0.0.
 One-electron integrals computed using PRISM.
 One-electron integral symmetry used in STVInt
 NBasis=   200 RedAO= T EigKep=  2.40D-05  NBF=   148    52
 NBsUse=   200 1.00D-06 EigRej= -1.00D+00 NBFU=   148    52
 Precomputing XC quadrature grid using
 IXCGrd= 4 IRadAn=           5 IRanWt=          -1 IRanGd=           0 AccXCQ= 0.00D+00.
 Generated NRdTot=       0 NPtTot=           0 NUsed=           0 NTot=          32
 NSgBfM=   208   208   208   208   208 MxSgAt=    12 MxSgA2=    12.
 Leave Link  302 at Tue Nov 22 14:26:22 2022, MaxMem=   671088640 cpu:              10.8 elap:               0.2
 (Enter /shared/gaussian/g16.b01/AVX2/g16/l303.exe)
 DipDrv:  MaxL=1.
 Leave Link  303 at Tue Nov 22 14:26:22 2022, MaxMem=   671088640 cpu:               1.4 elap:               0.1
 (Enter /shared/gaussian/g16.b01/AVX2/g16/l308.exe)
 Leave Link  308 at Tue Nov 22 14:26:22 2022, MaxMem=   671088640 cpu:               2.0 elap:               0.1
 (Enter /shared/gaussian/g16.b01/AVX2/g16/l401.exe)
 ExpMin= 4.38D-02 ExpMax= 8.59D+03 ExpMxC= 1.30D+03 IAcc=3 IRadAn=         5 AccDes= 0.00D+00
 Harris functional with IExCor=20419 and IRadAn=       5 diagonalized for initial guess.
 HarFok:  IExCor=20419 AccDes= 0.00D+00 IRadAn=         5 IDoV= 1 UseB2=F ITyADJ=14
 ICtDFT=  3500011 ScaDFX=  1.000000  1.000000  1.000000  1.000000
 FoFCou: FMM=F IPFlag=           0 FMFlag=      100000 FMFlg1=           0
         NFxFlg=           0 DoJE=T BraDBF=F KetDBF=T FulRan=T
         wScrn=  0.000000 ICntrl=       500 IOpCl=  0 I1Cent=   200000004 NGrid=           0
         NMat0=    1 NMatS0=      1 NMatT0=    0 NMatD0=    1 NMtDS0=    0 NMtDT0=    0
 Petite list used in FoFCou.
 Harris En= -400.142028921352    
 JPrj=0 DoOrth=F DoCkMO=F.
 Initial guess orbital symmetries:
       Occupied  (A') (A') (A') (A') (A') (A') (A') (A') (A') (A')
                 (A') (A') (A') (A') (A') (A') (A') (A') (A') (A')
                 (A") (A') (A') (A") (A") (A') (A") (A') (A")
       Virtual   (A') (A") (A') (A') (A") (A') (A') (A") (A') (A")
                 (A") (A') (A') (A") (A') (A') (A') (A') (A") (A')
                 (A") (A') (A') (A') (A') (A") (A') (A') (A") (A')
                 (A') (A') (A') (A') (A") (A') (A') (A') (A') (A')
                 (A') (A') (A') (A') (A') (A') (A") (A') (A') (A")
                 (A') (A") (A') (A") (A') (A') (A') (A') (A') (A')
                 (A') (A') (A') (A") (A') (A') (A") (A') (A') (A")
                 (A') (A") (A') (A") (A') (A") (A') (A') (A") (A')
                 (A') (A') (A") (A") (A") (A') (A') (A') (A') (A')
                 (A") (A') (A') (A") (A') (A") (A') (A') (A") (A')
                 (A') (A') (A') (A") (A') (A') (A') (A") (A') (A')
                 (A") (A') (A') (A") (A") (A') (A") (A') (A') (A')
                 (A') (A") (A') (A') (A") (A") (A") (A') (A') (A')
                 (A") (A') (A") (A') (A') (A') (A') (A") (A") (A')
                 (A') (A') (A') (A') (A') (A') (A') (A") (A') (A")
                 (A') (A') (A') (A') (A') (A') (A") (A") (A') (A')
                 (A') (A') (A') (A') (A') (A') (A') (A') (A') (A')
                 (A')
 The electronic state of the initial guess is 1-A'.
 Leave Link  401 at Tue Nov 22 14:26:23 2022, MaxMem=   671088640 cpu:              12.0 elap:               0.3
 (Enter /shared/gaussian/g16.b01/AVX2/g16/l502.exe)
 Keep R1 ints in memory in symmetry-blocked form, NReq=617182407.
 FoFCou: FMM=F IPFlag=           0 FMFlag=           0 FMFlg1=           0
         NFxFlg=           0 DoJE=F BraDBF=F KetDBF=F FulRan=T
         wScrn=  0.000000 ICntrl=       600 IOpCl=  0 I1Cent=           0 NGrid=           0
         NMat0=    1 NMatS0=  20100 NMatT0=    0 NMatD0=    1 NMtDS0=    0 NMtDT0=    0
 Petite list used in FoFCou.
 Closed shell SCF:
 Using DIIS extrapolation, IDIIS=  1040.
 NGot=   671088640 LenX=   564392544 LenY=   564348839
 Requested convergence on RMS density matrix=1.00D-08 within 128 cycles.
 Requested convergence on MAX density matrix=1.00D-06.
 Requested convergence on             energy=1.00D-06.
 No special actions if energy rises.

 Cycle   1  Pass 1  IDiag  1:
 E= -414.639856830948    
 DIIS: error= 6.66D-02 at cycle   1 NSaved=   1.
 NSaved= 1 IEnMin= 1 EnMin= -414.639856830948     IErMin= 1 ErrMin= 6.66D-02
 ErrMax= 6.66D-02  0.00D+00 EMaxC= 1.00D-01 BMatC= 6.95D-01 BMatP= 6.95D-01
 IDIUse=3 WtCom= 3.34D-01 WtEn= 6.66D-01
 Coeff-Com:  0.100D+01
 Coeff-En:   0.100D+01
 Coeff:      0.100D+01
 Gap=     0.311 Goal=   None    Shift=    0.000
 GapD=    0.311 DampG=1.000 DampE=0.500 DampFc=0.5000 IDamp=-1.
 Damping current iteration by 5.00D-01
 RMSDP=5.69D-03 MaxDP=4.31D-01              OVMax= 1.81D-01

 Cycle   2  Pass 1  IDiag  1:
 E= -414.697818750088     Delta-E=       -0.057961919140 Rises=F Damp=T
 DIIS: error= 3.17D-02 at cycle   2 NSaved=   2.
 NSaved= 2 IEnMin= 2 EnMin= -414.697818750088     IErMin= 2 ErrMin= 3.17D-02
 ErrMax= 3.17D-02  0.00D+00 EMaxC= 1.00D-01 BMatC= 1.43D-01 BMatP= 6.95D-01
 IDIUse=3 WtCom= 6.83D-01 WtEn= 3.17D-01
 Coeff-Com: -0.509D+00 0.151D+01
 Coeff-En:   0.000D+00 0.100D+01
 Coeff:     -0.347D+00 0.135D+01
 Gap=     0.337 Goal=   None    Shift=    0.000
 RMSDP=3.31D-03 MaxDP=3.23D-01 DE=-5.80D-02 OVMax= 1.52D-01

 Cycle   3  Pass 1  IDiag  1:
 E= -414.719417938630     Delta-E=       -0.021599188542 Rises=F Damp=F
 DIIS: error= 2.02D-02 at cycle   3 NSaved=   3.
 NSaved= 3 IEnMin= 3 EnMin= -414.719417938630     IErMin= 3 ErrMin= 2.02D-02
 ErrMax= 2.02D-02  0.00D+00 EMaxC= 1.00D-01 BMatC= 6.60D-02 BMatP= 1.43D-01
 IDIUse=3 WtCom= 7.98D-01 WtEn= 2.02D-01
 Coeff-Com: -0.358D+00 0.813D+00 0.545D+00
 Coeff-En:   0.000D+00 0.272D+00 0.728D+00
 Coeff:     -0.286D+00 0.703D+00 0.582D+00
 Gap=     0.313 Goal=   None    Shift=    0.000
 RMSDP=1.65D-03 MaxDP=6.97D-02 DE=-2.16D-02 OVMax= 8.17D-02

 Cycle   4  Pass 1  IDiag  1:
 E= -414.764308939258     Delta-E=       -0.044891000627 Rises=F Damp=F
 DIIS: error= 7.22D-03 at cycle   4 NSaved=   4.
 NSaved= 4 IEnMin= 4 EnMin= -414.764308939258     IErMin= 4 ErrMin= 7.22D-03
 ErrMax= 7.22D-03  0.00D+00 EMaxC= 1.00D-01 BMatC= 8.37D-03 BMatP= 6.60D-02
 IDIUse=3 WtCom= 9.28D-01 WtEn= 7.22D-02
 Coeff-Com: -0.144D+00 0.313D+00 0.345D+00 0.486D+00
 Coeff-En:   0.000D+00 0.000D+00 0.717D-01 0.928D+00
 Coeff:     -0.134D+00 0.290D+00 0.326D+00 0.518D+00
 Gap=     0.311 Goal=   None    Shift=    0.000
 RMSDP=8.25D-04 MaxDP=5.20D-02 DE=-4.49D-02 OVMax= 1.91D-02

 Cycle   5  Pass 1  IDiag  1:
 E= -414.769855609006     Delta-E=       -0.005546669748 Rises=F Damp=F
 DIIS: error= 1.51D-03 at cycle   5 NSaved=   5.
 NSaved= 5 IEnMin= 5 EnMin= -414.769855609006     IErMin= 5 ErrMin= 1.51D-03
 ErrMax= 1.51D-03  0.00D+00 EMaxC= 1.00D-01 BMatC= 2.64D-04 BMatP= 8.37D-03
 IDIUse=3 WtCom= 9.85D-01 WtEn= 1.51D-02
 Coeff-Com: -0.391D-01 0.833D-01 0.112D+00 0.258D+00 0.586D+00
 Coeff-En:   0.000D+00 0.000D+00 0.000D+00 0.000D+00 0.100D+01
 Coeff:     -0.385D-01 0.820D-01 0.111D+00 0.254D+00 0.592D+00
 Gap=     0.311 Goal=   None    Shift=    0.000
 RMSDP=1.01D-04 MaxDP=3.45D-03 DE=-5.55D-03 OVMax= 4.33D-03

 Cycle   6  Pass 1  IDiag  1:
 E= -414.770050686059     Delta-E=       -0.000195077053 Rises=F Damp=F
 DIIS: error= 3.94D-04 at cycle   6 NSaved=   6.
 NSaved= 6 IEnMin= 6 EnMin= -414.770050686059     IErMin= 6 ErrMin= 3.94D-04
 ErrMax= 3.94D-04  0.00D+00 EMaxC= 1.00D-01 BMatC= 1.48D-05 BMatP= 2.64D-04
 IDIUse=3 WtCom= 9.96D-01 WtEn= 3.94D-03
 Coeff-Com:  0.142D-01-0.311D-01-0.229D-01 0.752D-02 0.246D+00 0.786D+00
 Coeff-En:   0.000D+00 0.000D+00 0.000D+00 0.000D+00 0.000D+00 0.100D+01
 Coeff:      0.142D-01-0.310D-01-0.228D-01 0.749D-02 0.245D+00 0.787D+00
 Gap=     0.311 Goal=   None    Shift=    0.000
 RMSDP=8.32D-05 MaxDP=6.82D-03 DE=-1.95D-04 OVMax= 2.76D-03

 Cycle   7  Pass 1  IDiag  1:
 E= -414.770068910564     Delta-E=       -0.000018224504 Rises=F Damp=F
 DIIS: error= 1.43D-04 at cycle   7 NSaved=   7.
 NSaved= 7 IEnMin= 7 EnMin= -414.770068910564     IErMin= 7 ErrMin= 1.43D-04
 ErrMax= 1.43D-04  0.00D+00 EMaxC= 1.00D-01 BMatC= 2.51D-06 BMatP= 1.48D-05
 IDIUse=3 WtCom= 9.99D-01 WtEn= 1.43D-03
 Coeff-Com:  0.867D-02-0.187D-01-0.168D-01-0.199D-01 0.551D-01 0.347D+00
 Coeff-Com:  0.644D+00
 Coeff-En:   0.000D+00 0.000D+00 0.000D+00 0.000D+00 0.000D+00 0.000D+00
 Coeff-En:   0.100D+01
 Coeff:      0.866D-02-0.187D-01-0.168D-01-0.199D-01 0.550D-01 0.347D+00
 Coeff:      0.645D+00
 Gap=     0.311 Goal=   None    Shift=    0.000
 RMSDP=1.73D-05 MaxDP=1.09D-03 DE=-1.82D-05 OVMax= 6.26D-04

 Cycle   8  Pass 1  IDiag  1:
 E= -414.770071421589     Delta-E=       -0.000002511026 Rises=F Damp=F
 DIIS: error= 5.22D-05 at cycle   8 NSaved=   8.
 NSaved= 8 IEnMin= 8 EnMin= -414.770071421589     IErMin= 8 ErrMin= 5.22D-05
 ErrMax= 5.22D-05  0.00D+00 EMaxC= 1.00D-01 BMatC= 4.22D-07 BMatP= 2.51D-06
 IDIUse=1 WtCom= 1.00D+00 WtEn= 0.00D+00
 Coeff-Com:  0.141D-02-0.294D-02-0.361D-02-0.142D-01-0.277D-01 0.584D-02
 Coeff-Com:  0.281D+00 0.760D+00
 Coeff:      0.141D-02-0.294D-02-0.361D-02-0.142D-01-0.277D-01 0.584D-02
 Coeff:      0.281D+00 0.760D+00
 Gap=     0.311 Goal=   None    Shift=    0.000
 RMSDP=1.48D-05 MaxDP=1.07D-03 DE=-2.51D-06 OVMax= 2.80D-04

 Cycle   9  Pass 1  IDiag  1:
 E= -414.770071889917     Delta-E=       -0.000000468328 Rises=F Damp=F
 DIIS: error= 2.24D-05 at cycle   9 NSaved=   9.
 NSaved= 9 IEnMin= 9 EnMin= -414.770071889917     IErMin= 9 ErrMin= 2.24D-05
 ErrMax= 2.24D-05  0.00D+00 EMaxC= 1.00D-01 BMatC= 4.48D-08 BMatP= 4.22D-07
 IDIUse=1 WtCom= 1.00D+00 WtEn= 0.00D+00
 Coeff-Com: -0.499D-03 0.111D-02 0.727D-03-0.375D-02-0.186D-01-0.383D-01
 Coeff-Com:  0.421D-01 0.328D+00 0.689D+00
 Coeff:     -0.499D-03 0.111D-02 0.727D-03-0.375D-02-0.186D-01-0.383D-01
 Coeff:      0.421D-01 0.328D+00 0.689D+00
 Gap=     0.311 Goal=   None    Shift=    0.000
 RMSDP=2.17D-06 MaxDP=1.01D-04 DE=-4.68D-07 OVMax= 1.78D-04

 Cycle  10  Pass 1  IDiag  1:
 E= -414.770071940741     Delta-E=       -0.000000050823 Rises=F Damp=F
 DIIS: error= 7.61D-06 at cycle  10 NSaved=  10.
 NSaved=10 IEnMin=10 EnMin= -414.770071940741     IErMin=10 ErrMin= 7.61D-06
 ErrMax= 7.61D-06  0.00D+00 EMaxC= 1.00D-01 BMatC= 7.45D-09 BMatP= 4.48D-08
 IDIUse=1 WtCom= 1.00D+00 WtEn= 0.00D+00
 Coeff-Com: -0.421D-03 0.905D-03 0.919D-03 0.727D-03-0.348D-02-0.164D-01
 Coeff-Com: -0.276D-01 0.117D-01 0.319D+00 0.715D+00
 Coeff:     -0.421D-03 0.905D-03 0.919D-03 0.727D-03-0.348D-02-0.164D-01
 Coeff:     -0.276D-01 0.117D-01 0.319D+00 0.715D+00
 Gap=     0.311 Goal=   None    Shift=    0.000
 RMSDP=8.68D-07 MaxDP=2.91D-05 DE=-5.08D-08 OVMax= 3.37D-05

 Cycle  11  Pass 1  IDiag  1:
 E= -414.770071948678     Delta-E=       -0.000000007938 Rises=F Damp=F
 DIIS: error= 1.82D-06 at cycle  11 NSaved=  11.
 NSaved=11 IEnMin=11 EnMin= -414.770071948678     IErMin=11 ErrMin= 1.82D-06
 ErrMax= 1.82D-06  0.00D+00 EMaxC= 1.00D-01 BMatC= 3.97D-10 BMatP= 7.45D-09
 IDIUse=1 WtCom= 1.00D+00 WtEn= 0.00D+00
 Coeff-Com: -0.692D-04 0.147D-03 0.202D-03 0.470D-03 0.198D-03-0.218D-02
 Coeff-Com: -0.136D-01-0.224D-01 0.710D-01 0.229D+00 0.738D+00
 Coeff:     -0.692D-04 0.147D-03 0.202D-03 0.470D-03 0.198D-03-0.218D-02
 Coeff:     -0.136D-01-0.224D-01 0.710D-01 0.229D+00 0.738D+00
 Gap=     0.311 Goal=   None    Shift=    0.000
 RMSDP=2.01D-07 MaxDP=1.34D-05 DE=-7.94D-09 OVMax= 1.51D-05

 Cycle  12  Pass 1  IDiag  1:
 E= -414.770071949168     Delta-E=       -0.000000000490 Rises=F Damp=F
 DIIS: error= 7.79D-07 at cycle  12 NSaved=  12.
 NSaved=12 IEnMin=12 EnMin= -414.770071949168     IErMin=12 ErrMin= 7.79D-07
 ErrMax= 7.79D-07  0.00D+00 EMaxC= 1.00D-01 BMatC= 8.10D-11 BMatP= 3.97D-10
 IDIUse=1 WtCom= 1.00D+00 WtEn= 0.00D+00
 Coeff-Com:  0.238D-04-0.518D-04-0.235D-04 0.122D-03 0.582D-03 0.148D-02
 Coeff-Com: -0.215D-02-0.105D-01-0.155D-01-0.306D-01 0.297D+00 0.759D+00
 Coeff:      0.238D-04-0.518D-04-0.235D-04 0.122D-03 0.582D-03 0.148D-02
 Coeff:     -0.215D-02-0.105D-01-0.155D-01-0.306D-01 0.297D+00 0.759D+00
 Gap=     0.311 Goal=   None    Shift=    0.000
 RMSDP=8.86D-08 MaxDP=3.21D-06 DE=-4.90D-10 OVMax= 4.63D-06

 Cycle  13  Pass 1  IDiag  1:
 E= -414.770071949271     Delta-E=       -0.000000000103 Rises=F Damp=F
 DIIS: error= 1.85D-07 at cycle  13 NSaved=  13.
 NSaved=13 IEnMin=13 EnMin= -414.770071949271     IErMin=13 ErrMin= 1.85D-07
 ErrMax= 1.85D-07  0.00D+00 EMaxC= 1.00D-01 BMatC= 4.16D-12 BMatP= 8.10D-11
 IDIUse=1 WtCom= 1.00D+00 WtEn= 0.00D+00
 Coeff-Com:  0.818D-05-0.175D-04-0.161D-04-0.208D-04 0.687D-04 0.434D-03
 Coeff-Com:  0.707D-03 0.669D-03-0.825D-02-0.301D-01-0.120D-01 0.926D-01
 Coeff-Com:  0.956D+00
 Coeff:      0.818D-05-0.175D-04-0.161D-04-0.208D-04 0.687D-04 0.434D-03
 Coeff:      0.707D-03 0.669D-03-0.825D-02-0.301D-01-0.120D-01 0.926D-01
 Coeff:      0.956D+00
 Gap=     0.311 Goal=   None    Shift=    0.000
 RMSDP=2.23D-08 MaxDP=5.32D-07 DE=-1.03D-10 OVMax= 1.83D-06

 Cycle  14  Pass 1  IDiag  1:
 E= -414.770071949278     Delta-E=       -0.000000000007 Rises=F Damp=F
 DIIS: error= 9.83D-08 at cycle  14 NSaved=  14.
 NSaved=14 IEnMin=14 EnMin= -414.770071949278     IErMin=14 ErrMin= 9.83D-08
 ErrMax= 9.83D-08  0.00D+00 EMaxC= 1.00D-01 BMatC= 9.84D-13 BMatP= 4.16D-12
 IDIUse=1 WtCom= 1.00D+00 WtEn= 0.00D+00
 Coeff-Com:  0.245D-05-0.510D-05-0.745D-05-0.262D-04-0.400D-04 0.459D-04
 Coeff-Com:  0.538D-03 0.148D-02-0.175D-02-0.100D-01-0.321D-01-0.431D-01
 Coeff-Com:  0.414D+00 0.671D+00
 Coeff:      0.245D-05-0.510D-05-0.745D-05-0.262D-04-0.400D-04 0.459D-04
 Coeff:      0.538D-03 0.148D-02-0.175D-02-0.100D-01-0.321D-01-0.431D-01
 Coeff:      0.414D+00 0.671D+00
 Gap=     0.311 Goal=   None    Shift=    0.000
 RMSDP=8.38D-09 MaxDP=4.77D-07 DE=-7.05D-12 OVMax= 6.64D-07

 SCF Done:  E(RCAM-B3LYP) =  -414.770071949     A.U. after   14 cycles
            NFock= 14  Conv=0.84D-08     -V/T= 2.0029
 KE= 4.135610240307D+02 PE=-1.686277892391D+03 EE= 5.001815269335D+02
 Leave Link  502 at Tue Nov 22 14:26:26 2022, MaxMem=   671088640 cpu:             123.3 elap:               3.7
 (Enter /shared/gaussian/g16.b01/AVX2/g16/l801.exe)
 DoSCS=F DFT=T ScalE2(SS,OS)=  1.000000  1.000000
 ExpMin= 4.38D-02 ExpMax= 8.59D+03 ExpMxC= 1.30D+03 IAcc=3 IRadAn=         5 AccDes= 0.00D+00
 HarFok:  IExCor=  205 AccDes= 0.00D+00 IRadAn=         5 IDoV=-2 UseB2=F ITyADJ=14
 ICtDFT= 12500011 ScaDFX=  1.000000  1.000000  1.000000  1.000000
 Largest valence mixing into a core orbital is  4.79D-05
 Largest core mixing into a valence orbital is  1.09D-05
 Range of M.O.s used for correlation:     9   200
 NBasis=   200 NAE=    29 NBE=    29 NFC=     8 NFV=     0
 NROrb=    192 NOA=    21 NOB=    21 NVA=   171 NVB=   171

 **** Warning!!: The largest alpha MO coefficient is  0.84857462D+02

 Leave Link  801 at Tue Nov 22 14:26:26 2022, MaxMem=   671088640 cpu:               3.5 elap:               0.1
 (Enter /shared/gaussian/g16.b01/AVX2/g16/l914.exe)
 RHF ground state
 Two-electron integrals replicated using symmetry.
 MDV=   671088640 DFT=T DoStab=F Mixed=T DoRPA=T DoScal=F NonHer=T
 Making orbital integer symmetry assigments:
 Orbital symmetries:
       Occupied  (A') (A') (A') (A') (A') (A') (A') (A') (A') (A')
                 (A') (A') (A') (A') (A') (A') (A') (A') (A") (A')
                 (A') (A') (A') (A") (A") (A') (A") (A') (A")
       Virtual   (A") (A') (A') (A") (A') (A") (A') (A') (A') (A")
                 (A") (A') (A') (A") (A') (A') (A') (A') (A") (A')
                 (A") (A') (A') (A') (A') (A") (A') (A') (A') (A')
                 (A') (A") (A') (A') (A') (A') (A") (A') (A') (A')
                 (A') (A') (A') (A') (A') (A') (A') (A") (A') (A")
                 (A') (A") (A') (A") (A') (A') (A') (A') (A') (A')
                 (A') (A') (A') (A") (A') (A") (A') (A') (A') (A')
                 (A") (A") (A') (A') (A") (A") (A') (A") (A') (A")
                 (A') (A') (A") (A') (A") (A') (A') (A') (A') (A')
                 (A") (A') (A") (A') (A") (A') (A') (A') (A") (A')
                 (A') (A') (A') (A') (A") (A') (A') (A') (A") (A')
                 (A") (A') (A") (A') (A") (A') (A") (A') (A') (A')
                 (A') (A") (A') (A') (A") (A") (A') (A') (A") (A')
                 (A') (A") (A') (A") (A') (A') (A') (A") (A") (A')
                 (A') (A') (A') (A') (A') (A') (A') (A") (A') (A")
                 (A') (A') (A') (A') (A') (A') (A") (A") (A') (A')
                 (A') (A') (A') (A') (A') (A') (A') (A') (A') (A')
                 (A')
    40 initial guesses have been made.
 Convergence on wavefunction:    0.000001000000000
 Davidson Disk Diagonalization:  ConvIn= 1.00D-06 SkipCon=T Conv= 1.00D-06.
 Max sub-space:  2000 roots to seek:    40 dimension of matrix:         7182
 Iteration     1 Dimension    40 NMult     0 NNew     40
 CISAX will form    40 AO SS matrices at one time.
 NMat=    40 NSing=    40 JSym2X=-1.
 FoFJK:  IHMeth= 1 ICntrl=       0 DoSepK=T KAlg= 0 I1Cent=           0 FoldK=F
 IRaf=         1 NMat=      80 IRICut=       1 DoRegI=T DoRafI=F ISym2E=-1 IDoP0=3 IntGTp=3.
 FoFCou: FMM=F IPFlag=           0 FMFlag=      100000 FMFlg1=           0
         NFxFlg=           0 DoJE=F BraDBF=F KetDBF=F FulRan=T
         wScrn=  0.000000 ICntrl=       500 IOpCl=  0 I1Cent=           0 NGrid=           0
         NMat0=   40 NMatS0=     40 NMatT0=    0 NMatD0=   40 NMtDS0=    0 NMtDT0=    0
 Petite list used in FoFCou.
 New state      1 was old state      3
 New state      2 was old state      1
 New state      3 was old state      2
 New state      4 was old state     14
 New state      5 was old state      4
 New state      7 was old state      9
 New state      9 was old state      5
 New state     10 was old state     25
 Excitation Energies [eV] at current iteration:
 Root      1 :     5.334294234525252
 Root      2 :     6.209870395477417
 Root      3 :     6.320320631631329
 Root      4 :     6.724170697618825
 Root      5 :     7.072771405997377
 Root      6 :     7.283117407215863
 Root      7 :     7.297841347078586
 Root      8 :     7.382592028097505
 Root      9 :     7.417617410447550
 Root     10 :     7.658267412086170
 Root     11 :     7.680792601402262
 Root     12 :     7.780040028467000
 Root     13 :     7.887741846741667
 Root     14 :     7.940598618239097
 Root     15 :     8.102078862463499
 Root     16 :     8.268015503784870
 Root     17 :     8.314653910192892
 Root     18 :     8.448795762894084
 Root     19 :     8.481590436642486
 Root     20 :     8.730878708901574
 Root     21 :     8.766188412695314
 Root     22 :     8.820532804599351
 Root     23 :     8.842897584509364
 Root     24 :     8.981990867007902
 Root     25 :     9.051224743075215
 Root     26 :     9.109436979239590
 Root     27 :     9.206566649065493
 Root     28 :     9.209306092403045
 Root     29 :     9.399888575691488
 Root     30 :     9.439441050131537
 Root     31 :     9.511099435639151
 Root     32 :     9.594734275563301
 Root     33 :     9.605831124413195
 Root     34 :     9.727822194803164
 Root     35 :     9.736445754110633
 Root     36 :     9.882561961109555
 Root     37 :     9.887159858494162
 Root     38 :     9.913691952780551
 Root     39 :     9.986822970463228
 Root     40 :    10.072397340630967
 Iteration     2 Dimension    60 NMult    40 NNew     20
 CISAX will form    20 AO SS matrices at one time.
 NMat=    20 NSing=    20 JSym2X=-1.
 Root      1 not converged, maximum delta is    0.077350805786103
 Root      2 not converged, maximum delta is    0.073995585646302
 Root      3 not converged, maximum delta is    0.075461841043064
 Root      4 not converged, maximum delta is    0.106649969186082
 Root      5 not converged, maximum delta is    0.262017360388577
 New state      6 was old state      9
 Root      6 not converged, maximum delta is    0.380661987533295
 New state      7 was old state      6
 Root      7 not converged, maximum delta is    0.108300700673795
 New state      8 was old state      7
 Root      8 not converged, maximum delta is    0.098717551403550
 New state      9 was old state      8
 Root      9 not converged, maximum delta is    0.105240944343472
 Root     10 not converged, maximum delta is    0.117346808004371
 Excitation Energies [eV] at current iteration:
 Root      1 :     5.104801852684435   Change is   -0.229492381840817
 Root      2 :     5.568681178990241   Change is   -0.641189216487175
 Root      3 :     6.180332315161338   Change is   -0.139988316469991
 Root      4 :     6.384016258566983   Change is   -0.340154439051842
 Root      5 :     6.653243702646649   Change is   -0.419527703350729
 Root      6 :     6.961622351744151   Change is   -0.455995058703399
 Root      7 :     7.168379386620525   Change is   -0.114738020595338
 Root      8 :     7.184614275346843   Change is   -0.113227071731744
 Root      9 :     7.242095868060673   Change is   -0.140496160036833
 Root     10 :     7.379519129381464   Change is   -0.278748282704706
 Iteration     3 Dimension    80 NMult    60 NNew     20
 CISAX will form    20 AO SS matrices at one time.
 NMat=    20 NSing=    20 JSym2X=-1.
 Root      1 not converged, maximum delta is    0.005984221087399
 Root      2 not converged, maximum delta is    0.034877821829507
 Root      3 not converged, maximum delta is    0.003874781829483
 Root      4 not converged, maximum delta is    0.009139923761983
 Root      5 not converged, maximum delta is    0.057806629662993
 Root      6 not converged, maximum delta is    0.050443578659123
 Root      7 not converged, maximum delta is    0.102458924451217
 Root      8 not converged, maximum delta is    0.106009949676393
 Root      9 not converged, maximum delta is    0.018169618974618
 Root     10 not converged, maximum delta is    0.015944041170152
 Excitation Energies [eV] at current iteration:
 Root      1 :     5.099563243776225   Change is   -0.005238608908211
 Root      2 :     5.505964202075324   Change is   -0.062716976914917
 Root      3 :     6.178049578792194   Change is   -0.002282736369144
 Root      4 :     6.377928956081517   Change is   -0.006087302485465
 Root      5 :     6.619426488008711   Change is   -0.033817214637937
 Root      6 :     6.890665764775157   Change is   -0.070956586968994
 Root      7 :     7.165287178857481   Change is   -0.003092207763044
 Root      8 :     7.174253581425679   Change is   -0.010360693921163
 Root      9 :     7.237357731462025   Change is   -0.004738136598648
 Root     10 :     7.366865498930457   Change is   -0.012653630451007
 Iteration     4 Dimension   100 NMult    80 NNew     20
 CISAX will form    20 AO SS matrices at one time.
 NMat=    20 NSing=    20 JSym2X=-1.
 Root      1 not converged, maximum delta is    0.000797974913714
 Root      2 not converged, maximum delta is    0.003045256027499
 Root      3 not converged, maximum delta is    0.000667094051186
 Root      4 not converged, maximum delta is    0.001394232365594
 Root      5 not converged, maximum delta is    0.009364686435823
 Root      6 not converged, maximum delta is    0.008930891960916
 Root      7 not converged, maximum delta is    0.017834597550288
 Root      8 not converged, maximum delta is    0.018511641766065
 Root      9 not converged, maximum delta is    0.003674852765723
 Root     10 not converged, maximum delta is    0.002713891945874
 Excitation Energies [eV] at current iteration:
 Root      1 :     5.099450444737853   Change is   -0.000112799038372
 Root      2 :     5.501581964515593   Change is   -0.004382237559732
 Root      3 :     6.177984643535972   Change is   -0.000064935256221
 Root      4 :     6.377690182548101   Change is   -0.000238773533416
 Root      5 :     6.615732298270041   Change is   -0.003694189738670
 Root      6 :     6.882270041457470   Change is   -0.008395723317686
 Root      7 :     7.165026473789700   Change is   -0.000260705067780
 Root      8 :     7.173457517434511   Change is   -0.000796063991168
 Root      9 :     7.237039231275580   Change is   -0.000318500186445
 Root     10 :     7.366277440413853   Change is   -0.000588058516604
 Iteration     5 Dimension   120 NMult   100 NNew     20
 CISAX will form    20 AO SS matrices at one time.
 NMat=    20 NSing=    20 JSym2X=-1.
 Root      1 not converged, maximum delta is    0.000154322217005
 Root      2 not converged, maximum delta is    0.001108012162701
 Root      3 not converged, maximum delta is    0.000103647040585
 Root      4 not converged, maximum delta is    0.000423789609296
 Root      5 not converged, maximum delta is    0.001073907771610
 Root      6 not converged, maximum delta is    0.002394513241701
 Root      7 not converged, maximum delta is    0.000694440190267
 Root      8 not converged, maximum delta is    0.000725449195305
 Root      9 not converged, maximum delta is    0.000483227678905
 Root     10 not converged, maximum delta is    0.000875831133434
 Excitation Energies [eV] at current iteration:
 Root      1 :     5.099447324434284   Change is   -0.000003120303568
 Root      2 :     5.501198910968932   Change is   -0.000383053546661
 Root      3 :     6.177982676162416   Change is   -0.000001967373557
 Root      4 :     6.377678088240449   Change is   -0.000012094307652
 Root      5 :     6.615496253421918   Change is   -0.000236044848123
 Root      6 :     6.881435834630730   Change is   -0.000834206826741
 Root      7 :     7.165016172603046   Change is   -0.000010301186654
 Root      8 :     7.173423146291379   Change is   -0.000034371143132
 Root      9 :     7.237025324761224   Change is   -0.000013906514356
 Root     10 :     7.366239584982774   Change is   -0.000037855431080
 Iteration     6 Dimension   140 NMult   120 NNew     20
 CISAX will form    20 AO SS matrices at one time.
 NMat=    20 NSing=    20 JSym2X=-1.
 Root      1 not converged, maximum delta is    0.000014888798113
 Root      2 not converged, maximum delta is    0.000257225559189
 Root      3 not converged, maximum delta is    0.000024156960731
 Root      4 not converged, maximum delta is    0.000063190123900
 Root      5 not converged, maximum delta is    0.000210709561739
 Root      6 not converged, maximum delta is    0.000605902943437
 Root      7 not converged, maximum delta is    0.000074476597274
 Root      8 not converged, maximum delta is    0.000087805417706
 Root      9 not converged, maximum delta is    0.000104003823694
 Root     10 not converged, maximum delta is    0.000153814823038
 Excitation Energies [eV] at current iteration:
 Root      1 :     5.099447255189256   Change is   -0.000000069245028
 Root      2 :     5.501173096002907   Change is   -0.000025814966025
 Root      3 :     6.177982603918293   Change is   -0.000000072244122
 Root      4 :     6.377677710710550   Change is   -0.000000377529899
 Root      5 :     6.615481173203744   Change is   -0.000015080218175
 Root      6 :     6.881364053604669   Change is   -0.000071781026062
 Root      7 :     7.165015673712465   Change is   -0.000000498890581
 Root      8 :     7.173421485590835   Change is   -0.000001660700543
 Root      9 :     7.237024701787178   Change is   -0.000000622974046
 Root     10 :     7.366237420507771   Change is   -0.000002164475002
 Iteration     7 Dimension   160 NMult   140 NNew     20
 CISAX will form    20 AO SS matrices at one time.
 NMat=    20 NSing=    20 JSym2X=-1.
 Root      1 not converged, maximum delta is    0.000001777168418
 Root      2 not converged, maximum delta is    0.000051678677385
 Root      3 not converged, maximum delta is    0.000004215837521
 Root      4 not converged, maximum delta is    0.000008885857196
 Root      5 not converged, maximum delta is    0.000048199642256
 Root      6 not converged, maximum delta is    0.000166176757901
 Root      7 not converged, maximum delta is    0.000018335476106
 Root      8 not converged, maximum delta is    0.000026166772441
 Root      9 not converged, maximum delta is    0.000014239852318
 Root     10 not converged, maximum delta is    0.000037357462861
 Excitation Energies [eV] at current iteration:
 Root      1 :     5.099447253824287   Change is   -0.000000001364970
 Root      2 :     5.501171989127142   Change is   -0.000001106875764
 Root      3 :     6.177982601197826   Change is   -0.000000002720467
 Root      4 :     6.377677697350844   Change is   -0.000000013359706
 Root      5 :     6.615480439104043   Change is   -0.000000734099701
 Root      6 :     6.881360158048168   Change is   -0.000003895556500
 Root      7 :     7.165015646189942   Change is   -0.000000027522523
 Root      8 :     7.173421404654813   Change is   -0.000000080936023
 Root      9 :     7.237024677002099   Change is   -0.000000024785079
 Root     10 :     7.366237315129591   Change is   -0.000000105378180
 Iteration     8 Dimension   180 NMult   160 NNew     20
 CISAX will form    20 AO SS matrices at one time.
 NMat=    20 NSing=    20 JSym2X=-1.
 Root      1 has converged.
 Root      2 not converged, maximum delta is    0.000007485757229
 Root      3 has converged.
 Root      4 has converged.
 Root      5 not converged, maximum delta is    0.000022926774901
 Root      6 not converged, maximum delta is    0.000045045098072
 Root      7 not converged, maximum delta is    0.000002875346924
 Root      8 not converged, maximum delta is    0.000003125803445
 Root      9 not converged, maximum delta is    0.000002199412537
 No map to state     10
 Excitation Energies [eV] at current iteration:
 Root      1 :     5.099447253795962   Change is   -0.000000000028325
 Root      2 :     5.501171956654875   Change is   -0.000000032472268
 Root      3 :     6.177982601116391   Change is   -0.000000000081436
 Root      4 :     6.377677696889077   Change is   -0.000000000461767
 Root      5 :     6.615480400333283   Change is   -0.000000038770759
 Root      6 :     6.881359930229048   Change is   -0.000000227819120
 Root      7 :     7.165015644971072   Change is   -0.000000001218871
 Root      8 :     7.173421401339214   Change is   -0.000000003315599
 Root      9 :     7.237024675968380   Change is   -0.000000001033718
 Root     10 :     7.364658456543357
 Iteration     9 Dimension   194 NMult   180 NNew     14
 CISAX will form    14 AO SS matrices at one time.
 NMat=    14 NSing=    14 JSym2X=-1.
 Root      1 has converged.
 Root      2 not converged, maximum delta is    0.000001361881626
 Root      3 has converged.
 Root      4 has converged.
 Root      5 not converged, maximum delta is    0.000005797208168
 Root      6 not converged, maximum delta is    0.000012125409526
 Root      7 has converged.
 Root      8 has converged.
 Root      9 has converged.
 Root     10 not converged, maximum delta is    0.010910153612788
 Excitation Energies [eV] at current iteration:
 Root      1 :     5.099447253795866   Change is   -0.000000000000097
 Root      2 :     5.501171955595355   Change is   -0.000000001059519
 Root      3 :     6.177982601115765   Change is   -0.000000000000625
 Root      4 :     6.377677696885996   Change is   -0.000000000003081
 Root      5 :     6.615480397861321   Change is   -0.000000002471962
 Root      6 :     6.881359916393987   Change is   -0.000000013835061
 Root      7 :     7.165015644921460   Change is   -0.000000000049612
 Root      8 :     7.173421401189488   Change is   -0.000000000149726
 Root      9 :     7.237024675922307   Change is   -0.000000000046073
 Root     10 :     7.352301367759217   Change is   -0.012357088784140
 Iteration    10 Dimension   202 NMult   194 NNew      8
 CISAX will form     8 AO SS matrices at one time.
 NMat=     8 NSing=     8 JSym2X=-1.
 Root      1 has converged.
 Root      2 has converged.
 Root      3 has converged.
 Root      4 has converged.
 Root      5 has converged.
 Root      6 not converged, maximum delta is    0.000001914567907
 Root      7 has converged.
 Root      8 has converged.
 Root      9 has converged.
 Root     10 not converged, maximum delta is    0.002133346223235
 Excitation Energies [eV] at current iteration:
 Root      1 :     5.099447253795753   Change is   -0.000000000000113
 Root      2 :     5.501171955564796   Change is   -0.000000000030560
 Root      3 :     6.177982601115712   Change is   -0.000000000000053
 Root      4 :     6.377677696886060   Change is    0.000000000000064
 Root      5 :     6.615480397726891   Change is   -0.000000000134430
 Root      6 :     6.881359915638544   Change is   -0.000000000755443
 Root      7 :     7.165015644921460   Change is    0.000000000000000
 Root      8 :     7.173421401189500   Change is    0.000000000000012
 Root      9 :     7.237024675922285   Change is   -0.000000000000023
 Root     10 :     7.351706791974217   Change is   -0.000594575785000
 Iteration    11 Dimension   206 NMult   202 NNew      4
 CISAX will form     4 AO SS matrices at one time.
 NMat=     4 NSing=     4 JSym2X=-1.
 Root      1 has converged.
 Root      2 has converged.
 Root      3 has converged.
 Root      4 has converged.
 Root      5 has converged.
 Root      6 has converged.
 Root      7 has converged.
 Root      8 has converged.
 Root      9 has converged.
 Root     10 not converged, maximum delta is    0.000345795106044
 Excitation Energies [eV] at current iteration:
 Root      1 :     5.099447253795736   Change is   -0.000000000000017
 Root      2 :     5.501171955564810   Change is    0.000000000000014
 Root      3 :     6.177982601115712   Change is    0.000000000000000
 Root      4 :     6.377677696886099   Change is    0.000000000000039
 Root      5 :     6.615480397724095   Change is   -0.000000000002796
 Root      6 :     6.881359915603769   Change is   -0.000000000034776
 Root      7 :     7.165015644921471   Change is    0.000000000000012
 Root      8 :     7.173421401189477   Change is   -0.000000000000023
 Root      9 :     7.237024675922295   Change is    0.000000000000011
 Root     10 :     7.351680680097012   Change is   -0.000026111877204
 Iteration    12 Dimension   208 NMult   206 NNew      2
 CISAX will form     2 AO SS matrices at one time.
 NMat=     2 NSing=     2 JSym2X=-1.
 Root      1 has converged.
 Root      2 has converged.
 Root      3 has converged.
 Root      4 has converged.
 Root      5 has converged.
 Root      6 has converged.
 Root      7 has converged.
 Root      8 has converged.
 Root      9 has converged.
 Root     10 not converged, maximum delta is    0.000054013638909
 Excitation Energies [eV] at current iteration:
 Root      1 :     5.099447253795817   Change is    0.000000000000081
 Root      2 :     5.501171955564691   Change is   -0.000000000000119
 Root      3 :     6.177982601115791   Change is    0.000000000000079
 Root      4 :     6.377677696886125   Change is    0.000000000000026
 Root      5 :     6.615480397724058   Change is   -0.000000000000038
 Root      6 :     6.881359915603757   Change is   -0.000000000000012
 Root      7 :     7.165015644921460   Change is   -0.000000000000012
 Root      8 :     7.173421401189545   Change is    0.000000000000068
 Root      9 :     7.237024675922273   Change is   -0.000000000000023
 Root     10 :     7.351679347763785   Change is   -0.000001332333228
 Iteration    13 Dimension   210 NMult   208 NNew      2
 CISAX will form     2 AO SS matrices at one time.
 NMat=     2 NSing=     2 JSym2X=-1.
 Root      1 has converged.
 Root      2 has converged.
 Root      3 has converged.
 Root      4 has converged.
 Root      5 has converged.
 Root      6 has converged.
 Root      7 has converged.
 Root      8 has converged.
 Root      9 has converged.
 Root     10 not converged, maximum delta is    0.000012650802206
 Excitation Energies [eV] at current iteration:
 Root      1 :     5.099447253795720   Change is   -0.000000000000097
 Root      2 :     5.501171955564616   Change is   -0.000000000000075
 Root      3 :     6.177982601115765   Change is   -0.000000000000026
 Root      4 :     6.377677696886099   Change is   -0.000000000000026
 Root      5 :     6.615480397723946   Change is   -0.000000000000112
 Root      6 :     6.881359915603674   Change is   -0.000000000000083
 Root      7 :     7.165015644921471   Change is    0.000000000000012
 Root      8 :     7.173421401189454   Change is   -0.000000000000091
 Root      9 :     7.237024675922398   Change is    0.000000000000125
 Root     10 :     7.351679267081773   Change is   -0.000000080682011
 Iteration    14 Dimension   212 NMult   210 NNew      2
 CISAX will form     2 AO SS matrices at one time.
 NMat=     2 NSing=     2 JSym2X=-1.
 Root      1 has converged.
 Root      2 has converged.
 Root      3 has converged.
 Root      4 has converged.
 Root      5 has converged.
 Root      6 has converged.
 Root      7 has converged.
 Root      8 has converged.
 Root      9 has converged.
 Root     10 not converged, maximum delta is    0.000002515346828
 Excitation Energies [eV] at current iteration:
 Root      1 :     5.099447253795769   Change is    0.000000000000048
 Root      2 :     5.501171955564616   Change is    0.000000000000000
 Root      3 :     6.177982601115791   Change is    0.000000000000026
 Root      4 :     6.377677696886099   Change is    0.000000000000000
 Root      5 :     6.615480397724008   Change is    0.000000000000063
 Root      6 :     6.881359915603769   Change is    0.000000000000095
 Root      7 :     7.165015644921494   Change is    0.000000000000023
 Root      8 :     7.173421401189465   Change is    0.000000000000011
 Root      9 :     7.237024675922318   Change is   -0.000000000000080
 Root     10 :     7.351679262542214   Change is   -0.000000004539559
 Iteration    15 Dimension   214 NMult   212 NNew      2
 CISAX will form     2 AO SS matrices at one time.
 NMat=     2 NSing=     2 JSym2X=-1.
 Root      1 has converged.
 Root      2 has converged.
 Root      3 has converged.
 Root      4 has converged.
 Root      5 has converged.
 Root      6 has converged.
 Root      7 has converged.
 Root      8 has converged.
 Root      9 has converged.
 Root     10 has converged.
 Excitation Energies [eV] at current iteration:
 Root      1 :     5.099447253795736   Change is   -0.000000000000032
 Root      2 :     5.501171955564587   Change is   -0.000000000000029
 Root      3 :     6.177982601115765   Change is   -0.000000000000026
 Root      4 :     6.377677696886022   Change is   -0.000000000000077
 Root      5 :     6.615480397723946   Change is   -0.000000000000063
 Root      6 :     6.881359915603674   Change is   -0.000000000000095
 Root      7 :     7.165015644921507   Change is    0.000000000000012
 Root      8 :     7.173421401189465   Change is    0.000000000000000
 Root      9 :     7.237024675922318   Change is    0.000000000000000
 Root     10 :     7.351679262259430   Change is   -0.000000000282784
 Convergence achieved on expansion vectors.
 ***********************************************************************
 Excited states from <AA,BB:AA,BB> singles matrix:
 ***********************************************************************
 
 1PDM for each excited state written to RWF  633
 Ground to excited state transition densities written to RWF  633
 Ground to excited state transition electric dipole moments (Au):
       state          X           Y           Z        Dip. S.      Osc.
         1         0.0000     -0.0000      0.0044      0.0000      0.0000
         2        -1.0929     -0.4663     -0.0000      1.4118      0.1903
         3         0.0000      0.0000     -0.1446      0.0209      0.0032
         4        -0.0000     -0.0000     -0.0053      0.0000      0.0000
         5         0.5270      0.0366     -0.0000      0.2790      0.0452
         6         0.3182     -0.9465      0.0000      0.9971      0.1681
         7        -0.0000      0.0000      0.0636      0.0040      0.0007
         8         0.0000      0.0000     -0.0336      0.0011      0.0002
         9        -0.0000     -0.0000     -0.3276      0.1073      0.0190
        10        -0.2723     -0.0944     -0.0000      0.0831      0.0150
 Ground to excited state transition velocity dipole moments (Au):
       state          X           Y           Z        Dip. S.      Osc.
         1        -0.0000      0.0000     -0.0060      0.0000      0.0001
         2         0.2268      0.0925     -0.0000      0.0600      0.1979
         3        -0.0000     -0.0000      0.0331      0.0011      0.0032
         4         0.0000      0.0000      0.0028      0.0000      0.0000
         5        -0.1243     -0.0071     -0.0000      0.0155      0.0425
         6        -0.0844      0.2346     -0.0000      0.0621      0.1638
         7         0.0000     -0.0000     -0.0096      0.0001      0.0002
         8        -0.0000     -0.0000      0.0206      0.0004      0.0011
         9         0.0000      0.0000      0.0890      0.0079      0.0199
        10         0.0764      0.0247      0.0000      0.0064      0.0159
 Ground to excited state transition magnetic dipole moments (Au):
       state          X           Y           Z
         1         0.5538      0.5049     -0.0000
         2        -0.0000     -0.0000      1.6289
         3        -0.1746     -0.3119      0.0000
         4         0.7363     -0.3588      0.0000
         5         0.0000      0.0000     -0.1638
         6        -0.0000     -0.0000     -0.3959
         7         0.2489     -0.0080      0.0000
         8         0.2707      0.0644      0.0000
         9        -0.5110     -0.1059     -0.0000
        10         0.0000      0.0000     -0.7236
 Ground to excited state transition velocity quadrupole moments (Au):
       state          XX          YY          ZZ          XY          XZ          YZ
         1         0.0000     -0.0000     -0.0000      0.0000     -0.0459      0.0230
         2         0.3393     -0.2831      0.0111     -0.0150     -0.0000     -0.0000
         3        -0.0000      0.0000      0.0000      0.0000      0.1941     -0.1286
         4        -0.0000     -0.0000     -0.0000     -0.0000      0.0274      0.0418
         5        -0.5763     -0.0552      0.0163     -0.2969     -0.0000      0.0000
         6         0.7202     -0.1763     -0.1412      0.1512      0.0000     -0.0000
         7        -0.0000     -0.0000     -0.0000     -0.0000      0.0651     -0.0637
         8        -0.0000      0.0000      0.0000      0.0000     -0.0143     -0.0241
         9         0.0000     -0.0000     -0.0000     -0.0000      0.1541     -0.4501
        10         0.2862     -0.2125     -0.0755     -0.3767     -0.0000     -0.0000
 <0|del|b> * <b|rxdel|0> + <0|del|b> * <b|delr+rdel|0>
 Rotatory Strengths (R) in cgs (10**-40 erg-esu-cm/Gauss)
       state          XX          YY          ZZ    R(velocity)    E-M Angle
         1         0.0000     -0.0000      0.0000      0.0000       90.00
         2        -0.0000     -0.0000      0.0000     -0.0000       90.00
         3         0.0000      0.0000      0.0000      0.0000       90.00
         4        -0.0000      0.0000      0.0000      0.0000       90.00
         5        -0.0000     -0.0000      0.0000     -0.0000       90.00
         6        -0.0000      0.0000      0.0000      0.0000       90.00
         7        -0.0000      0.0000      0.0000      0.0000       90.00
         8         0.0000     -0.0000     -0.0000     -0.0000       90.00
         9        -0.0000     -0.0000      0.0000     -0.0000       90.00
        10        -0.0000      0.0000      0.0000      0.0000       90.00
 1/2[<0|r|b>*<b|rxdel|0> + (<0|rxdel|b>*<b|r|0>)*]
 Rotatory Strengths (R) in cgs (10**-40 erg-esu-cm/Gauss)
       state          XX          YY          ZZ     R(length)
         1        -0.0000      0.0000      0.0000      0.0000
         2        -0.0000     -0.0000      0.0000     -0.0000
         3         0.0000      0.0000      0.0000      0.0000
         4         0.0000     -0.0000      0.0000      0.0000
         5        -0.0000     -0.0000     -0.0000     -0.0000
         6         0.0000     -0.0000      0.0000      0.0000
         7         0.0000      0.0000     -0.0000     -0.0000
         8        -0.0000     -0.0000      0.0000     -0.0000
         9        -0.0000     -0.0000     -0.0000     -0.0000
        10         0.0000      0.0000     -0.0000      0.0000
  1/2[<0|del|b>*<b|r|0> + (<0|r|b>*<b|del|0>)*] (Au)
       state          X           Y           Z        Dip. S.   Osc.(frdel)
         1        -0.0000     -0.0000     -0.0000      0.0000      0.0000
         2        -0.2479     -0.0431      0.0000      0.2910      0.1940
         3        -0.0000     -0.0000     -0.0048      0.0048      0.0032
         4        -0.0000     -0.0000     -0.0000      0.0000      0.0000
         5        -0.0655     -0.0003      0.0000      0.0658      0.0439
         6        -0.0268     -0.2220     -0.0000      0.2489      0.1659
         7        -0.0000     -0.0000     -0.0006      0.0006      0.0004
         8        -0.0000     -0.0000     -0.0007      0.0007      0.0005
         9        -0.0000     -0.0000     -0.0292      0.0292      0.0194
        10        -0.0208     -0.0023     -0.0000      0.0231      0.0154

 Excitation energies and oscillator strengths:
 
 Excited State   1:      Singlet-A"     5.0994 eV  243.13 nm  f=0.0000  <S**2>=0.000
      26 -> 30        -0.16651
      28 -> 30         0.63343
      28 -> 33         0.21125
 
 Excited State   2:      Singlet-A'     5.5012 eV  225.38 nm  f=0.1903  <S**2>=0.000
      27 -> 33         0.10965
      29 -> 30         0.68613
 This state for optimization and/or second-order correction.
 Total Energy, E(TD-HF/TD-DFT) =  -414.567907600    
 Copying the excited state density for this state as the 1-particle RhoCI density.
 
 Excited State   3:      Singlet-A"     6.1780 eV  200.69 nm  f=0.0032  <S**2>=0.000
      29 -> 31         0.69087
 
 Excited State   4:      Singlet-A"     6.3777 eV  194.40 nm  f=0.0000  <S**2>=0.000
      26 -> 30        -0.30292
      26 -> 33         0.39873
      26 -> 40        -0.11053
      28 -> 30        -0.17789
      28 -> 33         0.42544
 
 Excited State   5:      Singlet-A'     6.6155 eV  187.42 nm  f=0.0452  <S**2>=0.000
      27 -> 30         0.69221
 
 Excited State   6:      Singlet-A'     6.8814 eV  180.17 nm  f=0.1681  <S**2>=0.000
      29 -> 33         0.68852
 
 Excited State   7:      Singlet-A"     7.1650 eV  173.04 nm  f=0.0007  <S**2>=0.000
      26 -> 30         0.27033
      28 -> 33         0.14680
      29 -> 32         0.54720
      29 -> 34         0.21514
      29 -> 36        -0.11739
      29 -> 38        -0.10921
 
 Excited State   8:      Singlet-A"     7.1734 eV  172.84 nm  f=0.0002  <S**2>=0.000
      26 -> 30         0.51931
      28 -> 33         0.28437
      29 -> 32        -0.32570
 
 Excited State   9:      Singlet-A"     7.2370 eV  171.32 nm  f=0.0190  <S**2>=0.000
      26 -> 30        -0.13389
      27 -> 31        -0.11308
      29 -> 32        -0.15687
      29 -> 34         0.63731
 
 Excited State  10:      Singlet-A'     7.3517 eV  168.65 nm  f=0.0150  <S**2>=0.000
      26 -> 31         0.12618
      26 -> 34        -0.10709
      28 -> 31         0.51411
      28 -> 32        -0.40145
      28 -> 34         0.10029
 SavETr:  write IOETrn=   770 NScale= 10 NData=  16 NLR=1 NState=   10 LETran=     190.
 The selected state is a singlet.
 CISGrd: IGrad=3 NXY=2 DFT=T
 CISAX will form     1 AO SS matrices at one time.
 NMat=     1 NSing=     1 JSym2X=-1.
 Leave Link  914 at Tue Nov 22 14:26:58 2022, MaxMem=   671088640 cpu:            1588.4 elap:              31.8
 (Enter /shared/gaussian/g16.b01/AVX2/g16/l1002.exe)
 Minotr:  Closed shell wavefunction.
          Computing CIS/TDA/TD derivatives.
          Using Z-Vector for PSCF gradient.
          Skipping F1 and S1 gradient terms here.
          IDoAtm=111111111111
          Frozen-core window.
          Direct CPHF calculation.
          Differentiating once with respect to electric field.
                with respect to dipole field.
          Differentiating once with respect to nuclear coordinates.
          Requested convergence is 1.0D-10 RMS, and 1.0D-09 maximum.
          NewPWx=F KeepS1=T KeepF1=T KeepIn=T MapXYZ=F SortEE=F KeepMc=T.
 Keep R1 ints in memory in symmetry-blocked form, NReq=617184223.
 FoFCou: FMM=F IPFlag=           0 FMFlag=           0 FMFlg1=           0
         NFxFlg=           0 DoJE=F BraDBF=F KetDBF=F FulRan=T
         wScrn=  0.000000 ICntrl=       600 IOpCl=  0 I1Cent=           0 NGrid=           0
         NMat0=    1 NMatS0=  20100 NMatT0=    0 NMatD0=    1 NMtDS0=    0 NMtDT0=    0
 Petite list used in FoFCou.
 Two-electron integral symmetry used by symmetrizing perturbed Fock matrices.
          MDV=     671088640 using IRadAn=       5.
          Solving linear equations separately, MaxMat=       0.
          There are     1 degrees of freedom in the 1st order CPHF.  IDoFFX=0 NUNeed=     1.
 LinEq1:  Iter=  0 NonCon=     1 RMS=7.65D-03 Max=2.07D-01 NDo=     1
 AX will form     1 AO Fock derivatives at one time.
 LinEq1:  Iter=  1 NonCon=     1 RMS=2.89D-03 Max=7.66D-02 NDo=     1
 LinEq1:  Iter=  2 NonCon=     1 RMS=1.83D-03 Max=5.17D-02 NDo=     1
 LinEq1:  Iter=  3 NonCon=     1 RMS=8.23D-04 Max=1.71D-02 NDo=     1
 LinEq1:  Iter=  4 NonCon=     1 RMS=5.85D-04 Max=2.32D-02 NDo=     1
 LinEq1:  Iter=  5 NonCon=     1 RMS=2.37D-04 Max=5.69D-03 NDo=     1
 LinEq1:  Iter=  6 NonCon=     1 RMS=1.63D-04 Max=4.35D-03 NDo=     1
 LinEq1:  Iter=  7 NonCon=     1 RMS=7.39D-05 Max=2.09D-03 NDo=     1
 LinEq1:  Iter=  8 NonCon=     1 RMS=4.42D-05 Max=1.17D-03 NDo=     1
 LinEq1:  Iter=  9 NonCon=     1 RMS=1.86D-05 Max=5.00D-04 NDo=     1
 LinEq1:  Iter= 10 NonCon=     1 RMS=8.88D-06 Max=1.73D-04 NDo=     1
 LinEq1:  Iter= 11 NonCon=     1 RMS=3.31D-06 Max=4.40D-05 NDo=     1
 LinEq1:  Iter= 12 NonCon=     1 RMS=1.25D-06 Max=1.48D-05 NDo=     1
 LinEq1:  Iter= 13 NonCon=     1 RMS=4.57D-07 Max=1.06D-05 NDo=     1
 LinEq1:  Iter= 14 NonCon=     1 RMS=1.49D-07 Max=1.53D-06 NDo=     1
 LinEq1:  Iter= 15 NonCon=     1 RMS=6.52D-08 Max=1.32D-06 NDo=     1
 LinEq1:  Iter= 16 NonCon=     1 RMS=1.20D-08 Max=2.28D-07 NDo=     1
 LinEq1:  Iter= 17 NonCon=     1 RMS=2.10D-09 Max=3.79D-08 NDo=     1
 LinEq1:  Iter= 18 NonCon=     1 RMS=3.79D-10 Max=4.47D-09 NDo=     1
 LinEq1:  Iter= 19 NonCon=     1 RMS=6.86D-11 Max=1.29D-09 NDo=     1
 LinEq1:  Iter= 20 NonCon=     0 RMS=1.32D-11 Max=2.17D-10 NDo=     1
 Linear equations converged to 1.000D-10 1.000D-09 after    20 iterations.
          There are     1 degrees of freedom in the 1st order CPHF.  IDoFFX=0 NUNeed=     1.
 End of Minotr F.D. properties file   721 does not exist.
 End of Minotr F.D. properties file   722 does not exist.
 End of Minotr F.D. properties file   788 does not exist.
 Leave Link 1002 at Tue Nov 22 14:27:04 2022, MaxMem=   671088640 cpu:             160.9 elap:               5.8
 (Enter /shared/gaussian/g16.b01/AVX2/g16/l1101.exe)
 Using compressed Sx but separate Hx and Fx, NAtomX=    12.
 Will process     13 centers per pass.
 Leave Link 1101 at Tue Nov 22 14:27:04 2022, MaxMem=   671088640 cpu:               9.4 elap:               0.2
 (Enter /shared/gaussian/g16.b01/AVX2/g16/l1102.exe)
 Use density number 6.
 Symmetrizing basis deriv contribution to polar:
 IMax=3 JMax=2 DiffMx= 0.00D+00
 Leave Link 1102 at Tue Nov 22 14:27:04 2022, MaxMem=   671088640 cpu:               0.8 elap:               0.0
 (Enter /shared/gaussian/g16.b01/AVX2/g16/l1110.exe)
 Forming Gx(P) for the SCF density, NAtomX=    12.
 Integral derivatives from FoFJK, PRISM(SPDF).
 Do as many integral derivatives as possible in FoFJK.
 G2DrvN: MDV=     671087568.
 G2DrvN: will do    13 centers at a time, making    1 passes.
 Calling FoFCou, ICntrl=  3107 FMM=F I1Cent=   0 AccDes= 0.00D+00.
 FoFJK:  IHMeth= 1 ICntrl=    3107 DoSepK=T KAlg= 0 I1Cent=           0 FoldK=F
 IRaf=         1 NMat=       1 IRICut=       1 DoRegI=T DoRafI=F ISym2E= 1 IDoP0=0 IntGTp=1.
 FoFCou: FMM=F IPFlag=           0 FMFlag=      100000 FMFlg1=           0
         NFxFlg=           0 DoJE=F BraDBF=F KetDBF=F FulRan=T
         wScrn=  0.000000 ICntrl=      3507 IOpCl=  0 I1Cent=           0 NGrid=           0
         NMat0=    1 NMatS0=      1 NMatT0=    0 NMatD0=    1 NMtDS0=    0 NMtDT0=    0
 Petite list used in FoFCou.
 Forming Gx(P) for generalized density number  6 NAtomX=    12.
 Integral derivatives from FoFJK, PRISM(SPDF).
 Do as many integral derivatives as possible in FoFJK.
 G2DrvN: MDV=     671087568.
 G2DrvN: will do    13 centers at a time, making    1 passes.
 Calling FoFCou, ICntrl=  3107 FMM=F I1Cent=   0 AccDes= 0.00D+00.
 Forming Gx(T) for CIS/TDA/TD state  2 NAtomX=    12.
 Integral derivatives from FoFJK, PRISM(SPDF).
 Do as many integral derivatives as possible in FoFJK.
 G2DrvN: MDV=     671087568.
 G2DrvN: will do    13 centers at a time, making    1 passes.
 Calling FoFCou, ICntrl=  3107 FMM=F I1Cent=   0 AccDes= 0.00D+00.
 End of G2Drv F.D. properties file   721 does not exist.
 End of G2Drv F.D. properties file   722 does not exist.
 End of G2Drv F.D. properties file   788 does not exist.
 Leave Link 1110 at Tue Nov 22 14:27:12 2022, MaxMem=   671088640 cpu:             356.9 elap:               7.2
 (Enter /shared/gaussian/g16.b01/AVX2/g16/l1002.exe)
 Minotr:  Closed shell wavefunction.
          IDoAtm=111111111111
          Frozen-core window.
          Direct CPHF calculation.
          Differentiating once with respect to electric field.
                with respect to dipole field.
          Differentiating once with respect to nuclear coordinates.
          Requested convergence is 1.0D-08 RMS, and 1.0D-07 maximum.
          Secondary convergence is 1.0D-12 RMS, and 1.0D-12 maximum.
          NewPWx=T KeepS1=T KeepF1=T KeepIn=T MapXYZ=F SortEE=F KeepMc=T.
         3675 words used for storage of precomputed grid.
 Keep R1 ints in memory in symmetry-blocked form, NReq=617187898.
 FoFCou: FMM=F IPFlag=           0 FMFlag=           0 FMFlg1=           0
         NFxFlg=           0 DoJE=F BraDBF=F KetDBF=F FulRan=T
         wScrn=  0.000000 ICntrl=       600 IOpCl=  0 I1Cent=           0 NGrid=           0
         NMat0=    1 NMatS0=  20100 NMatT0=    0 NMatD0=    1 NMtDS0=    0 NMtDT0=    0
 Petite list used in FoFCou.
          MDV=     671088640 using IRadAn=       1.
          Solving linear equations simultaneously, MaxMat=       0.
          There are    39 degrees of freedom in the 1st order CPHF.  IDoFFX=6 NUNeed=    39.
     36 vectors produced by pass  0 Test12= 1.27D-14 2.56D-09 XBig12= 5.70D+01 4.77D+00.
 AX will form    36 AO Fock derivatives at one time.
     36 vectors produced by pass  1 Test12= 1.27D-14 2.56D-09 XBig12= 9.59D+00 5.86D-01.
     36 vectors produced by pass  2 Test12= 1.27D-14 2.56D-09 XBig12= 1.70D-01 8.28D-02.
     36 vectors produced by pass  3 Test12= 1.27D-14 2.56D-09 XBig12= 1.78D-03 7.80D-03.
     36 vectors produced by pass  4 Test12= 1.27D-14 2.56D-09 XBig12= 1.18D-05 4.51D-04.
     36 vectors produced by pass  5 Test12= 1.27D-14 2.56D-09 XBig12= 5.72D-08 3.10D-05.
     32 vectors produced by pass  6 Test12= 1.27D-14 2.56D-09 XBig12= 2.57D-10 2.54D-06.
     13 vectors produced by pass  7 Test12= 1.27D-14 2.56D-09 XBig12= 1.21D-12 1.91D-07.
      3 vectors produced by pass  8 Test12= 1.27D-14 2.56D-09 XBig12= 6.00D-15 1.73D-08.
 InvSVY:  IOpt=1 It=  1 EMax= 2.66D-15
 Solved reduced A of dimension   264 with    39 vectors.
 FullF1:  Do perturbations      1 to      39.
 Isotropic polarizability for W=    0.000000       64.77 Bohr**3.
 Saving first derivative matrices.
 End of Minotr F.D. properties file   721 does not exist.
 End of Minotr F.D. properties file   722 does not exist.
 End of Minotr F.D. properties file   788 does not exist.
 Leave Link 1002 at Tue Nov 22 14:27:17 2022, MaxMem=   671088640 cpu:             297.6 elap:               6.0
 (Enter /shared/gaussian/g16.b01/AVX2/g16/l1014.exe)
 This link is doing    39 degrees of freedom
 Form MO integral derivatives with frozen-active canonical formalism.
 CISSec: MDV=     671082937
 Doing TD-HF/TD-DFT second derivatives, IDoFFX=6 IOneXC=4 IRadAn=         1.
 Frozen orbitals handled with amplitudes over full window.
 Frozen-core window:  NFC=   8 NFV=   0.
 Symmetry is being used.
 Keep R1, R2, and R3 ints in memory in symmetry-blocked form, NReq=617227688.
 FoFCou: FMM=F IPFlag=           0 FMFlag=           0 FMFlg1=           0
         NFxFlg=           0 DoJE=F BraDBF=F KetDBF=F FulRan=T
         wScrn=  0.000000 ICntrl=       600 IOpCl=  0 I1Cent=           0 NGrid=           0
         NMat0=    1 NMatS0=  20100 NMatT0=    0 NMatD0=    1 NMtDS0=    0 NMtDT0=    0
 Petite list used in FoFCou.
 The selected state is a singlet.
 CISGrX: IGrad=3 NXY=2 DFT=T
 CISAX will form    39 AO SS matrices at one time.
 NMat=    39 NSing=    39 JSym2X= 2.
     36 vectors produced by pass  0 Test12= 1.84D-14 2.56D-09 XBig12= 2.24D+01 3.27D+00.
 AX will form    36 AO Fock derivatives at one time.
     36 vectors produced by pass  1 Test12= 1.84D-14 2.56D-09 XBig12= 1.51D+00 5.06D-01.
     36 vectors produced by pass  2 Test12= 1.84D-14 2.56D-09 XBig12= 1.07D-01 9.78D-02.
     36 vectors produced by pass  3 Test12= 1.84D-14 2.56D-09 XBig12= 2.39D-03 8.32D-03.
     36 vectors produced by pass  4 Test12= 1.84D-14 2.56D-09 XBig12= 3.70D-05 1.29D-03.
     36 vectors produced by pass  5 Test12= 1.84D-14 2.56D-09 XBig12= 5.08D-07 1.57D-04.
     36 vectors produced by pass  6 Test12= 1.84D-14 2.56D-09 XBig12= 4.60D-09 9.16D-06.
     28 vectors produced by pass  7 Test12= 1.84D-14 2.56D-09 XBig12= 3.89D-11 8.27D-07.
     17 vectors produced by pass  8 Test12= 1.84D-14 2.56D-09 XBig12= 2.51D-13 7.52D-08.
      5 vectors produced by pass  9 Test12= 1.84D-14 2.56D-09 XBig12= 1.65D-15 5.31D-09.
 InvSVY:  IOpt=1 It=  1 EMax= 1.21D-15
 Solved reduced A of dimension   302 with    39 vectors.
 Tx.T =  9.78D-06 for pert.     2
 Tx.T = -1.68D-06 for pert.     1
 Tx.T =  7.83D-07 for pert.    14
 Tx.T =  5.47D-07 for pert.     5
 Tx.T = -4.93D-07 for pert.     7
 Tx.T = -4.29D-07 for pert.    25
 Tx.T =  3.57D-07 for pert.    13
 Tx.T = -3.10D-07 for pert.    32
 Tx.T = -2.86D-07 for pert.    11
 Tx.T =  2.85D-07 for pert.    28
 SavDET:  read IOETrn=   770 NScale= 10 NData=  16 NLR=1 NState=   10 NDeriv=    0 LETran=     190.
 SavDET: write IOETrn=   770 NScale= 10 NData=  16 NLR=1 NState=   10 NDeriv=   39 LETran=     814.
 TDDxLx will form    39 C1x/S1x matrices at one time.
 Interchange theorem applied.
 FoFJK:  IHMeth= 1 ICntrl=    5100 DoSepK=T KAlg= 0 I1Cent=           0 FoldK=F
 IRaf=         1 NMat=       1 IRICut=       1 DoRegI=T DoRafI=F ISym2E= 0 IDoP0=0 IntGTp=1.
 Leave Link 1014 at Tue Nov 22 14:27:29 2022, MaxMem=   671088640 cpu:             556.4 elap:              11.2
 (Enter /shared/gaussian/g16.b01/AVX2/g16/l601.exe)
 Copying SCF densities to generalized density rwf, IOpCl= 0 IROHF=0.

 **********************************************************************

            Population analysis using the SCF Density.

 **********************************************************************

 Orbital symmetries:
       Occupied  (A') (A') (A') (A') (A') (A') (A') (A') (A') (A')
                 (A') (A') (A') (A') (A') (A') (A') (A') (A") (A')
                 (A') (A') (A') (A") (A") (A') (A") (A') (A")
       Virtual   (A") (A') (A') (A") (A') (A") (A') (A') (A') (A")
                 (A") (A') (A') (A") (A') (A') (A') (A') (A") (A')
                 (A") (A') (A') (A') (A') (A") (A') (A') (A') (A')
                 (A') (A") (A') (A') (A') (A') (A") (A') (A') (A')
                 (A') (A') (A') (A') (A') (A') (A') (A") (A') (A")
                 (A') (A") (A') (A") (A') (A') (A') (A') (A') (A')
                 (A') (A') (A') (A") (A') (A") (A') (A') (A') (A')
                 (A") (A") (A') (A') (A") (A") (A') (A") (A') (A")
                 (A') (A') (A") (A') (A") (A') (A') (A') (A') (A')
                 (A") (A') (A") (A') (A") (A') (A') (A') (A") (A')
                 (A') (A') (A') (A') (A") (A') (A') (A') (A") (A')
                 (A") (A') (A") (A') (A") (A') (A") (A') (A') (A')
                 (A') (A") (A') (A') (A") (A") (A') (A') (A") (A')
                 (A') (A") (A') (A") (A') (A') (A') (A") (A") (A')
                 (A') (A') (A') (A') (A') (A') (A') (A") (A') (A")
                 (A') (A') (A') (A') (A') (A') (A") (A") (A') (A')
                 (A') (A') (A') (A') (A') (A') (A') (A') (A') (A')
                 (A')
 The electronic state is 1-A'.
 Alpha  occ. eigenvalues --  -19.19043 -19.18498 -14.46871 -14.45137 -10.41485
 Alpha  occ. eigenvalues --  -10.38058 -10.34157 -10.27386  -1.18339  -1.14825
 Alpha  occ. eigenvalues --   -1.08180  -1.02634  -0.89851  -0.78502  -0.75623
 Alpha  occ. eigenvalues --   -0.68760  -0.65063  -0.60693  -0.57377  -0.55833
 Alpha  occ. eigenvalues --   -0.53737  -0.50808  -0.50252  -0.49392  -0.45272
 Alpha  occ. eigenvalues --   -0.38102  -0.36552  -0.34867  -0.32450
 Alpha virt. eigenvalues --   -0.01305   0.00608   0.03659   0.04035   0.04196
 Alpha virt. eigenvalues --    0.05992   0.06585   0.07896   0.08357   0.09748
 Alpha virt. eigenvalues --    0.11110   0.11224   0.11836   0.14079   0.14519
 Alpha virt. eigenvalues --    0.15286   0.15730   0.16822   0.17132   0.18128
 Alpha virt. eigenvalues --    0.19404   0.20682   0.21326   0.22342   0.23132
 Alpha virt. eigenvalues --    0.23993   0.25361   0.26023   0.27819   0.28565
 Alpha virt. eigenvalues --    0.29125   0.29180   0.29913   0.31722   0.33961
 Alpha virt. eigenvalues --    0.34351   0.34421   0.35228   0.35444   0.36806
 Alpha virt. eigenvalues --    0.39690   0.40895   0.42784   0.46075   0.50289
 Alpha virt. eigenvalues --    0.52256   0.56311   0.57192   0.58007   0.60643
 Alpha virt. eigenvalues --    0.62639   0.62664   0.65421   0.65585   0.68640
 Alpha virt. eigenvalues --    0.70678   0.74017   0.75944   0.77046   0.79612
 Alpha virt. eigenvalues --    0.81849   0.82351   0.85246   0.85457   0.89588
 Alpha virt. eigenvalues --    0.89650   0.89934   0.93931   0.98602   1.04746
 Alpha virt. eigenvalues --    1.06004   1.07573   1.09347   1.13807   1.16053
 Alpha virt. eigenvalues --    1.19074   1.20209   1.20428   1.22140   1.23539
 Alpha virt. eigenvalues --    1.24036   1.25066   1.28558   1.29619   1.33443
 Alpha virt. eigenvalues --    1.35260   1.38359   1.53655   1.56285   1.60073
 Alpha virt. eigenvalues --    1.61931   1.67195   1.69360   1.69903   1.72479
 Alpha virt. eigenvalues --    1.73484   1.77094   1.79766   1.80749   1.84633
 Alpha virt. eigenvalues --    1.87336   1.90347   1.96301   1.98495   1.99019
 Alpha virt. eigenvalues --    2.03477   2.06953   2.11041   2.11972   2.26783
 Alpha virt. eigenvalues --    2.28351   2.31350   2.38503   2.39910   2.45637
 Alpha virt. eigenvalues --    2.48904   2.54960   2.56826   2.64349   2.67929
 Alpha virt. eigenvalues --    2.72287   2.75014   2.76017   2.78855   2.82943
 Alpha virt. eigenvalues --    2.86152   2.90888   2.92856   2.94884   2.97870
 Alpha virt. eigenvalues --    2.98613   2.99627   3.00977   3.02625   3.08714
 Alpha virt. eigenvalues --    3.19299   3.21202   3.42949   3.44058   3.45103
 Alpha virt. eigenvalues --    3.48279   3.53490   3.57016   3.62447   3.68191
 Alpha virt. eigenvalues --    3.71832   3.75912   3.87977   3.92162   3.92695
 Alpha virt. eigenvalues --    4.05677   4.12354   4.25907   4.76638   4.86980
 Alpha virt. eigenvalues --    4.92692   5.10079   5.12829   5.21073   5.25830
 Alpha virt. eigenvalues --    5.41316   5.82535   5.86469  23.74627  23.89603
 Alpha virt. eigenvalues --   23.95131  24.25557  35.61511  35.67066  50.04735
 Alpha virt. eigenvalues --   50.09641
          Condensed to atoms (all electrons):
               1          2          3          4          5          6
     1  C    4.921118  -0.216623   0.178986  -0.135384   0.178514   0.008552
     2  C   -0.216623   5.910596  -0.269676  -0.118364   0.297319   0.397449
     3  C    0.178986  -0.269676   6.129434   0.080504  -0.363812   0.004881
     4  C   -0.135384  -0.118364   0.080504   5.378933   0.104714   0.001220
     5  N    0.178514   0.297319  -0.363812   0.104714   7.297689  -0.003432
     6  H    0.008552   0.397449   0.004881   0.001220  -0.003432   0.495228
     7  H   -0.006054  -0.034980   0.400176   0.002773   0.010634  -0.006193
     8  O    0.023929   0.025999  -0.140672   0.406088  -0.098005  -0.000306
     9  O    0.407705   0.043847  -0.022702   0.027703  -0.101397  -0.000202
    10  N    0.271244   0.037554  -0.019351   0.099212  -0.228235  -0.053921
    11  H   -0.018893  -0.018581   0.005172  -0.007552   0.010144  -0.003586
    12  H   -0.019789  -0.012936   0.013589  -0.009501   0.334544   0.000075
               7          8          9         10         11         12
     1  C   -0.006054   0.023929   0.407705   0.271244  -0.018893  -0.019789
     2  C   -0.034980   0.025999   0.043847   0.037554  -0.018581  -0.012936
     3  C    0.400176  -0.140672  -0.022702  -0.019351   0.005172   0.013589
     4  C    0.002773   0.406088   0.027703   0.099212  -0.007552  -0.009501
     5  N    0.010634  -0.098005  -0.101397  -0.228235   0.010144   0.334544
     6  H   -0.006193  -0.000306  -0.000202  -0.053921  -0.003586   0.000075
     7  H    0.470785  -0.009118   0.000145   0.009297  -0.000053  -0.000135
     8  O   -0.009118   8.124032   0.001089  -0.001306  -0.000006   0.008031
     9  O    0.000145   0.001089   8.119126  -0.126431   0.011194   0.007925
    10  N    0.009297  -0.001306  -0.126431   7.036026   0.350106   0.012797
    11  H   -0.000053  -0.000006   0.011194   0.350106   0.341283  -0.000059
    12  H   -0.000135   0.008031   0.007925   0.012797  -0.000059   0.324035
 Mulliken charges:
               1
     1  C    0.406694
     2  C   -0.041604
     3  C    0.003469
     4  C    0.169654
     5  N   -0.438679
     6  H    0.160236
     7  H    0.162723
     8  O   -0.339754
     9  O   -0.368000
    10  N   -0.386992
    11  H    0.330830
    12  H    0.341423
 Sum of Mulliken charges =  -0.00000
 Mulliken charges with hydrogens summed into heavy atoms:
               1
     1  C    0.406694
     2  C    0.118632
     3  C    0.166192
     4  C    0.169654
     5  N   -0.097256
     8  O   -0.339754
     9  O   -0.368000
    10  N   -0.056161
 APT charges:
               1
     1  C    0.554187
     2  C   -0.625780
     3  C    0.368086
     4  C    0.639157
     5  N   -0.352062
     6  H    0.092464
     7  H    0.108701
     8  O   -0.886028
     9  O   -0.649868
    10  N    0.265966
    11  H    0.258738
    12  H    0.226438
 Sum of APT charges =  -0.00000
 APT charges with hydrogens summed into heavy atoms:
               1
[...]
                 6             7             8             9            10 
      1   0.000000D+00  0.000000D+00  0.000000D+00  0.000000D+00  0.000000D+00
      2   0.000000D+00  0.907386D+00  0.204463D+00  0.000000D+00 -0.678823D+00
      3   0.000000D+00  0.880067D-01  0.672076D-01  0.000000D+00 -0.566759D-01
      4  -0.159541D-01  0.000000D+00  0.000000D+00  0.429470D+00  0.000000D+00
      5   0.000000D+00 -0.103758D+00  0.353022D-01  0.000000D+00  0.611793D-01
      6   0.000000D+00  0.251892D-01  0.169820D-01  0.000000D+00 -0.233259D-01
      7   0.577972D-03  0.000000D+00  0.000000D+00 -0.896920D-01  0.000000D+00
      8   0.403892D+00  0.000000D+00  0.000000D+00  0.649991D+00  0.000000D+00
      9  -0.827359D-01  0.000000D+00  0.000000D+00  0.842180D+00  0.000000D+00
     10   0.000000D+00  0.685311D-01  0.414253D+00  0.000000D+00 -0.355745D-01
     11   0.000000D+00 -0.204721D-01  0.882928D-01  0.000000D+00  0.191196D+00
     12   0.000000D+00  0.776448D-01  0.942070D-01  0.000000D+00 -0.390696D-01
     13   0.000000D+00  0.872226D-02  0.157862D-01  0.000000D+00 -0.175587D-01
     14   0.000000D+00  0.107599D+00  0.796483D-01  0.000000D+00 -0.499237D-01
     15   0.442059D-01  0.000000D+00  0.000000D+00 -0.248222D+00  0.000000D+00
     16   0.494766D-01  0.000000D+00  0.000000D+00  0.340020D+00  0.000000D+00
                11            12            13            14            15 
      1   0.000000D+00  0.000000D+00  0.000000D+00  0.000000D+00  0.000000D+00
      2  -0.480556D+00  0.000000D+00  0.105436D+00  0.243210D+00  0.000000D+00
      3  -0.549326D+00  0.000000D+00  0.417069D+00  0.783973D+00  0.000000D+00
      4   0.000000D+00 -0.383107D+00  0.000000D+00  0.000000D+00 -0.138798D+00
      5   0.136405D-01  0.000000D+00 -0.124838D-01  0.160163D-01  0.000000D+00
      6   0.778682D-01  0.000000D+00 -0.753173D-01 -0.130558D+00  0.000000D+00
      7   0.000000D+00  0.855513D-01  0.000000D+00  0.000000D+00  0.250520D-01
      8   0.000000D+00 -0.570637D+00  0.000000D+00  0.000000D+00 -0.619081D+00
      9   0.000000D+00 -0.273603D+00  0.000000D+00  0.000000D+00 -0.370219D+00
     10  -0.359699D+00  0.000000D+00 -0.476782D-01  0.687657D-01  0.000000D+00
     11   0.103747D+00  0.000000D+00 -0.324450D+00 -0.365204D+00  0.000000D+00
     12  -0.379130D-01  0.000000D+00 -0.627004D-01 -0.120867D+00  0.000000D+00
     13  -0.975991D-01  0.000000D+00  0.514195D-01  0.127948D+00  0.000000D+00
     14   0.277989D+00  0.000000D+00 -0.324041D+00 -0.505622D+00  0.000000D+00
     15   0.000000D+00  0.287281D+00  0.000000D+00  0.000000D+00  0.102046D+00
     16   0.000000D+00 -0.209466D+00  0.000000D+00  0.000000D+00 -0.101499D+00
                16            17            18            19            20 
      1   0.000000D+00  0.000000D+00  0.000000D+00  0.000000D+00  0.000000D+00
      2  -0.282668D+00 -0.198505D+00  0.000000D+00  0.200958D-01 -0.310856D-01
      3   0.677150D+00  0.273541D+00  0.000000D+00 -0.296440D-01  0.540122D-01
      4   0.000000D+00  0.000000D+00  0.716355D-01  0.000000D+00  0.000000D+00
      5   0.842938D-01  0.257239D-01  0.000000D+00 -0.238933D-02  0.457384D-02
      6  -0.123693D+00 -0.656887D-01  0.000000D+00  0.602354D-02 -0.117333D-01
      7   0.000000D+00  0.000000D+00 -0.992754D-02  0.000000D+00  0.000000D+00
      8   0.000000D+00  0.000000D+00  0.583376D-01  0.000000D+00  0.000000D+00
      9   0.000000D+00  0.000000D+00  0.750722D-01  0.000000D+00  0.000000D+00
     10   0.446976D+00  0.107431D+00  0.000000D+00  0.735951D-03  0.254418D-01
     11  -0.125253D+00 -0.195481D+00  0.000000D+00  0.237121D-01 -0.175038D-01
     12   0.614599D-01  0.845619D-01  0.000000D+00 -0.215650D-01  0.746240D-01
     13   0.647165D-01  0.131368D-01  0.000000D+00 -0.154940D-02  0.531780D-02
     14  -0.280400D-01  0.174372D+00  0.000000D+00  0.177823D-01 -0.215861D-01
     15   0.000000D+00  0.000000D+00 -0.933955D-01  0.000000D+00  0.000000D+00
     16   0.000000D+00  0.000000D+00  0.274838D-01  0.000000D+00  0.000000D+00
                21            22            23            24            25 
      1   0.000000D+00  0.000000D+00  0.000000D+00  0.000000D+00  0.000000D+00
      2   0.000000D+00 -0.139915D-01  0.977796D-02  0.000000D+00  0.784454D-01
      3   0.000000D+00  0.122724D-01 -0.656024D-02  0.000000D+00 -0.777195D+00
      4  -0.599962D-01  0.000000D+00  0.000000D+00  0.553757D-01  0.000000D+00
      5   0.000000D+00  0.345722D-02 -0.782953D-03  0.000000D+00 -0.520600D-01
      6   0.000000D+00 -0.278643D-02  0.125650D-02  0.000000D+00  0.140245D+00
      7   0.129035D-01  0.000000D+00  0.000000D+00 -0.135987D-01  0.000000D+00
      8  -0.205362D+00  0.000000D+00  0.000000D+00  0.171378D+00  0.000000D+00
      9  -0.137389D+00  0.000000D+00  0.000000D+00  0.130107D+00  0.000000D+00
     10   0.000000D+00 -0.171828D-01  0.305927D-01  0.000000D+00 -0.300063D+00
     11   0.000000D+00  0.188907D-01 -0.123448D-01  0.000000D+00  0.420996D+00
     12   0.000000D+00  0.171605D-01 -0.299538D-01  0.000000D+00  0.162739D-01
     13   0.000000D+00  0.544448D-02  0.501593D-02  0.000000D+00 -0.794419D-01
     14   0.000000D+00 -0.255689D-01  0.973320D-02  0.000000D+00  0.317280D+00
     15   0.870483D-02  0.000000D+00  0.000000D+00 -0.395173D-01  0.000000D+00
     16  -0.655524D-01  0.000000D+00  0.000000D+00  0.588894D-01  0.000000D+00
                26            27            28            29            30 
      1   0.000000D+00  0.000000D+00  0.000000D+00  0.000000D+00  0.000000D+00
      2   0.102536D+00  0.000000D+00 -0.105984D+00  0.119290D+00  0.000000D+00
      3  -0.533127D+00  0.000000D+00 -0.534667D+00  0.395629D+00  0.000000D+00
      4   0.000000D+00 -0.987007D-02  0.000000D+00  0.000000D+00  0.210204D-01
      5  -0.508555D-01  0.000000D+00  0.372933D-01 -0.230549D-01  0.000000D+00
      6   0.951505D-01  0.000000D+00  0.110368D+00 -0.802105D-01  0.000000D+00
      7   0.000000D+00  0.120220D-02  0.000000D+00  0.000000D+00 -0.427561D-02
      8   0.000000D+00  0.177300D+00  0.000000D+00  0.000000D+00 -0.661796D-01
      9   0.000000D+00  0.132537D+00  0.000000D+00  0.000000D+00 -0.833383D-02
     10  -0.148773D+00  0.000000D+00 -0.260626D-02  0.103081D+00  0.000000D+00
     11   0.184103D+00  0.000000D+00  0.321101D+00 -0.163161D+00  0.000000D+00
     12   0.975701D-01  0.000000D+00 -0.981045D-01  0.130453D-01  0.000000D+00
     13  -0.380362D-01  0.000000D+00 -0.244926D-01  0.152777D-01  0.000000D+00
     14   0.210650D+00  0.000000D+00 -0.565008D-01  0.521304D-02  0.000000D+00
     15   0.000000D+00  0.144217D-01  0.000000D+00  0.000000D+00  0.104211D-01
     16   0.000000D+00  0.652913D-01  0.000000D+00  0.000000D+00 -0.352796D-01
                31            32            33            34            35 
      1   0.000000D+00  0.000000D+00  0.000000D+00  0.000000D+00  0.000000D+00
      2  -0.513698D+00  0.165449D-01  0.000000D+00  0.629661D-01  0.309669D-01
      3   0.148063D+00  0.413094D+00  0.000000D+00 -0.391406D-01 -0.324762D-02
      4   0.000000D+00  0.000000D+00  0.401870D-01  0.000000D+00  0.000000D+00
      5   0.107390D+00 -0.135262D-01  0.000000D+00 -0.106724D-01 -0.308576D-02
      6  -0.372017D-01 -0.829945D-01  0.000000D+00  0.893436D-02  0.232198D-02
      7   0.000000D+00  0.000000D+00 -0.964117D-02  0.000000D+00  0.000000D+00
      8   0.000000D+00  0.000000D+00 -0.192829D-01  0.000000D+00  0.000000D+00
      9   0.000000D+00  0.000000D+00 -0.131734D+00  0.000000D+00  0.000000D+00
     10   0.216145D+00 -0.281221D+00  0.000000D+00 -0.762872D-02  0.103171D-01
     11   0.138878D+00 -0.230356D+00  0.000000D+00  0.492138D-01  0.197402D-01
     12   0.233139D-01  0.567307D-01  0.000000D+00 -0.278238D-01  0.488580D-03
     13  -0.228355D-02  0.207606D-01  0.000000D+00 -0.313327D-02  0.147314D-02
     14   0.123474D+00  0.118635D+00  0.000000D+00  0.771317D-02 -0.156223D-02
     15   0.000000D+00  0.000000D+00  0.139891D+00  0.000000D+00  0.000000D+00
     16   0.000000D+00  0.000000D+00 -0.306407D-01  0.000000D+00  0.000000D+00
                36            37            38            39 
      1   0.000000D+00  0.000000D+00  0.000000D+00  0.000000D+00
      2   0.000000D+00  0.127385D-01  0.783670D-01  0.000000D+00
      3   0.000000D+00 -0.598800D-02 -0.123389D-01  0.000000D+00
      4  -0.108427D-01  0.000000D+00  0.000000D+00  0.880591D-03
      5   0.000000D+00 -0.249648D-02 -0.153526D-01  0.000000D+00
      6   0.000000D+00  0.117396D-03  0.297975D-02  0.000000D+00
      7   0.263957D-02  0.000000D+00  0.000000D+00 -0.791525D-03
      8  -0.675266D-01  0.000000D+00  0.000000D+00 -0.541765D-02
      9   0.473970D-01  0.000000D+00  0.000000D+00  0.353571D-02
     10   0.000000D+00  0.102282D-02  0.437823D-01  0.000000D+00
     11   0.000000D+00 -0.135045D-01  0.637961D-03  0.000000D+00
     12   0.000000D+00  0.240131D-02  0.559095D-02  0.000000D+00
     13   0.000000D+00  0.617627D-02  0.286084D-03  0.000000D+00
     14   0.000000D+00 -0.378709D-02 -0.224694D-01  0.000000D+00
     15   0.318712D-02  0.000000D+00  0.000000D+00 -0.221015D-02
     16  -0.142479D-01  0.000000D+00  0.000000D+00  0.811170D-02

 ----------------------------------------------------------------------

 Electric dipole moment (input orientation):
 (Debye = 10**-18 statcoulomb cm , SI units = C m)
                  (au)            (Debye)         (10**-30 SI)
   Tot        0.207233D+01      0.526734D+01      0.175700D+02
   x         -0.101686D+01     -0.258461D+01     -0.862134D+01
   y         -0.180570D+01     -0.458962D+01     -0.153093D+02
   z          0.000000D+00      0.000000D+00      0.000000D+00

 Dipole polarizability, Alpha (input orientation).
 (esu units = cm**3 , SI units = C**2 m**2 J**-1)
 Alpha(0;0):
               (au)            (10**-24 esu)      (10**-40 SI)
   iso        0.857384D+02      0.127051D+02      0.141364D+02
   aniso      0.697617D+02      0.103376D+02      0.115021D+02
   xx         0.124024D+03      0.183785D+02      0.204488D+02
   yx        -0.417847D+00     -0.619185D-01     -0.688936D-01
   yy         0.894583D+02      0.132563D+02      0.147497D+02
   zx         0.000000D+00      0.000000D+00      0.000000D+00
   zy         0.000000D+00      0.000000D+00      0.000000D+00
   zz         0.437328D+02      0.648053D+01      0.721056D+01

 ----------------------------------------------------------------------

 Dipole orientation:
     6         -2.05379522          1.15658008          0.54475952
     6          1.45384726         -0.81872368          2.74780582
     6          2.63201535         -1.48220061          0.60867832
     6          1.50654181         -0.84839824         -1.82147048
     7         -0.79729426          0.44899056         -1.62347151
     1          2.20920742         -1.24409935          4.59977760
     1          4.40781077         -2.48222709          0.61405638
     8          2.38104716         -1.34086967         -3.87419814
     8         -4.04147573          2.27592814          0.55973591
     7         -0.80555369          0.45364179          2.73575357
     1         -1.67632577          0.94401086          4.35764341
     1         -1.64653314          0.92723335         -3.26867491

 Electric dipole moment (dipole orientation):
 (Debye = 10**-18 statcoulomb cm , SI units = C m)
                  (au)            (Debye)         (10**-30 SI)
   Tot        0.207233D+01      0.526734D+01      0.175700D+02
   x          0.000000D+00      0.000000D+00      0.000000D+00
   y          0.000000D+00      0.000000D+00      0.000000D+00
   z          0.207233D+01      0.526734D+01      0.175700D+02

 Dipole polarizability, Alpha (dipole orientation).
 (esu units = cm**3 , SI units = C**2 m**2 J**-1)
 Alpha(0;0):
               (au)            (10**-24 esu)      (10**-40 SI)
   iso        0.857384D+02      0.127051D+02      0.141364D+02
   aniso      0.697617D+02      0.103376D+02      0.115021D+02
   xx         0.986447D+02      0.146176D+02      0.162643D+02
   yx        -0.309233D+02     -0.458236D+01     -0.509856D+01
   yy         0.611470D+02      0.906105D+01      0.100818D+02
   zx        -0.126885D+02     -0.188024D+01     -0.209205D+01
   zy         0.714544D+01      0.105885D+01      0.117812D+01
   zz         0.974235D+02      0.144367D+02      0.160630D+02

 ----------------------------------------------------------------------
 1\1\GINC-BAKU1\Freq\RCAM-B3LYP TD-FC\6-311+G(d,p)\C4H4N2O2\ROOT\22-Nov
 -2022\0\\#p freq td=(nstates=10,root=2) cam-b3lyp/6-311+G(d,p) symm=lo
 ose\\Uracil TDDFT excited state 2\\0,1\C,-1.228274,0.360852,0.\C,0.055
 847,-1.700239,0.\C,1.234753,-1.065003,0.\C,1.270191,0.390911,0.\N,-0.0
 00359,0.986164,0.\H,-0.025317,-2.779266,0.\H,2.173067,-1.596674,0.\O,2
 .265971,1.076801,0.\O,-2.283998,0.94628,0.\N,-1.136647,-1.021375,0.\H,
 -2.01858,-1.509722,0.\H,-0.022563,1.997828,0.\\Version=ES64L-G16RevB.0
 1\State=1-A'\HF=-414.7700719\RMSD=8.385e-09\RMSF=2.645e-02\ZeroPoint=0
 .0815922\Thermal=0.0879212\Dipole=-1.016865,-1.8056964,0.\DipoleDeriv=
 0.4252847,0.2055659,0.,0.037064,0.8744066,0.,0.,0.,0.3628697,-1.321006
 9,0.1685478,0.,-0.0121522,-0.2861983,0.,0.,0.,-0.270136,1.1347287,0.14
 43496,0.,0.3939559,0.0700026,0.,0.,0.,-0.1004726,0.7553376,0.3356188,0
 .,0.0709368,1.0692401,0.,0.,0.,0.0928939,-0.0174052,0.1378901,0.,0.212
 4648,-0.7220727,0.,0.,0.,-0.3167074,0.0590658,-0.0368608,0.,-0.0393226
 ,-0.002938,0.,0.,0.,0.2212654,0.0684491,0.0303486,0.,0.0172367,0.09000
 21,0.,0.,0.,0.1676524,-1.328994,-0.674786,0.,-0.6602359,-1.0071089,0.,
 0.,0.,-0.3219818,-1.0822185,0.0424372,0.,0.4188619,-0.5032987,0.,0.,0.
 ,-0.364086,0.9369404,-0.4224824,0.,-0.530446,-0.0875949,0.,0.,0.,-0.05
 1448,0.2622366,0.0692782,0.,0.0794977,0.2247266,0.,0.,0.,0.2892522,0.1
 075817,0.0000929,0.,0.0121389,0.2808335,0.,0.,0.,0.2908982\Polar=124.0
 241851,-0.4178467,89.4582679,0.,0.,43.7327782\PG=CS [SG(C4H4N2O2)]\NIm
 ag=2\\0.86490269,-0.12324711,0.62226322,0.,0.,0.14882303,-0.05328755,0
 .01003972,0.,0.71506210,0.03625857,-0.01226696,0.,0.13044964,0.7586266
 4,0.,0.,0.01292588,0.,0.,-0.04256611,0.04768062,0.01064968,0.,-0.36165
 985,-0.18805298,0.,0.83154908,0.00590085,0.01468890,0.,-0.17274547,-0.
 19986642,0.,0.03916817,0.61071772,0.,0.,-0.00168663,0.,0.,0.02055020,0
 .,0.,0.04927577,-0.08660501,-0.02185161,0.,-0.01863185,-0.03627711,0.,
 -0.09294720,0.04101773,0.,0.77096218,0.02850817,0.04053899,0.,0.006614
 09,-0.00257399,0.,-0.00907887,-0.23945664,0.,0.18961740,0.71112969,0.,
 0.,-0.02382435,0.,0.,0.01214234,0.,0.,-0.04973028,0.,0.,0.07142533,-0.
 16739161,-0.02732545,0.,0.05988495,0.00576504,0.,-0.05675401,-0.007804
 28,0.,-0.15884546,0.05264705,0.,0.61497413,-0.07635952,-0.18721632,0.,
 0.00217807,-0.00469147,0.,0.04905509,-0.01716961,0.,0.08944312,-0.1975
 1877,0.,-0.01744557,0.84417563,0.,0.,-0.03270708,0.,0.,-0.01531917,0.,
 0.,0.00924478,0.,0.,-0.00183986,0.,0.,-0.00438677,-0.00417745,-0.00459
 993,0.,-0.05997937,-0.03129344,0.,0.00243288,-0.03154629,0.,-0.0051009
 0,0.00290877,0.,0.00143185,0.00023204,0.,0.06729171,0.00075153,0.00348
 753,0.,-0.02545324,-0.34298695,0.,0.00098991,-0.00940156,0.,-0.0026786
 2,0.00194070,0.,-0.00017842,0.00042117,0.,0.02298417,0.36302978,0.,0.,
 -0.00033502,0.,0.,-0.00960994,0.,0.,0.00343236,0.,0.,-0.00646918,0.,0.
 ,0.00043877,0.,0.,0.00424044,0.00011579,-0.00048485,0.,-0.01518493,0.0
 1506497,0.,-0.28572185,0.13061739,0.,0.00467677,-0.00303382,0.,0.00038
 624,-0.00128341,0.,0.00068740,-0.00000462,0.,0.29702863,-0.00189563,-0
 .00107338,0.,-0.01594939,0.01193550,0.,0.13300786,-0.13043085,0.,0.028
 57119,-0.00736595,0.,-0.00152111,-0.00588519,0.,0.00046653,0.00072411,
 0.,-0.13904013,0.13007558,0.,0.,-0.00155478,0.,0.,0.01060260,0.,0.,-0.
 02871983,0.,0.,0.00909720,0.,0.,0.00322378,0.,0.,0.00114804,0.,0.,0.01
 130523,0.00922047,0.00029300,0.,-0.01919558,-0.02123529,0.,0.01457118,
 -0.02650159,0.,-0.48371678,-0.27631363,0.,-0.07551167,-0.02496906,0.,-
 0.00077078,0.00105650,0.,0.00052401,-0.00134882,0.,0.56986496,-0.01037
 469,-0.01470713,0.,-0.01606905,-0.02408206,0.,-0.03570353,-0.03280610,
 0.,-0.29238197,-0.29140164,0.,0.01622725,0.03767775,0.,-0.00300697,-0.
 00046087,0.,0.00074591,0.00332860,0.,0.34139135,0.31161305,0.,0.,0.008
 35070,0.,0.,0.00126406,0.,0.,0.00939430,0.,0.,-0.02243867,0.,0.,0.0069
 1756,0.,0.,0.00358287,0.,0.,-0.00336246,0.,0.,0.00395382,-0.53987601,0
 .21012590,0.,0.01245273,0.00831438,0.,-0.00913611,0.00158707,0.,0.0277
 8994,-0.02387870,0.,-0.09859499,0.03130731,0.,-0.00102941,0.00119526,0
 .,0.00000998,0.00087341,0.,-0.02074008,-0.00211758,0.,0.64360465,0.248
 72506,-0.20861987,0.,-0.00054531,-0.01022150,0.,-0.00415161,-0.0050347
 0,0.,0.00039883,-0.00231263,0.,-0.02033253,0.02417052,0.,0.00283055,-0
 .00141566,0.,0.00014950,0.00021167,0.,0.00686156,0.00520186,0.,-0.3032
 8964,0.25662313,0.,0.,-0.05647185,0.,0.,-0.00206109,0.,0.,0.00072528,0
 .,0.,0.00935995,0.,0.,0.01474600,0.,0.,0.00122333,0.,0.,0.00032524,0.,
 0.,-0.00312788,0.,0.,0.02475941,-0.08763657,-0.01629234,0.,-0.24471612
 ,0.09574191,0.,-0.08108520,0.01548554,0.,0.03422159,-0.00404693,0.,-0.
 04918089,-0.06893282,0.,-0.00204274,0.00098164,0.,-0.00234646,-0.00401
 912,0.,0.00391266,0.00711999,0.,-0.01374789,0.06505758,0.,0.81751106,-
 0.06538074,-0.23286345,0.,0.06209099,-0.19123662,0.,0.00082227,0.01319
 621,0.,0.00169382,-0.00210206,0.,-0.01170385,-0.04016172,0.,0.04078880
 ,-0.01560036,0.,-0.00331787,-0.00175289,0.,0.00312455,0.00403531,0.,0.
 06916490,-0.06432411,0.,0.07646358,0.69523004,0.,0.,-0.05345915,0.,0.,
 0.01196500,0.,0.,-0.01633726,0.,0.,0.00563344,0.,0.,0.01979355,0.,0.,0
 .00282978,0.,0.,-0.00137597,0.,0.,-0.00333423,0.,0.,0.01717416,0.,0.,0
 .02880254,0.00925610,-0.00091532,0.,-0.01323842,-0.01481840,0.,-0.0031
 3321,0.00299982,0.,-0.00089148,-0.00012346,0.,0.00192664,0.00365250,0.
 ,0.00113041,0.00035522,0.,-0.00046942,-0.00058603,0.,-0.00039976,0.000
 09382,0.,-0.00211193,0.00017286,0.,-0.36877729,-0.17006601,0.,0.376280
 30,-0.04022559,-0.01280151,0.,0.01871741,0.01712311,0.,0.00253440,-0.0
 0405503,0.,0.00061771,-0.00063985,0.,0.00368895,-0.00569916,0.,0.00026
 433,0.00028452,0.,0.00072702,0.00058553,0.,-0.00035096,0.00039025,0.,0
 .00367681,0.00467245,0.,-0.16732400,-0.16612252,0.,0.17913666,0.166420
 63,0.,0.,0.00216238,0.,0.,0.00101183,0.,0.,0.00322281,0.,0.,-0.0010238
 8,0.,0.,0.00127543,0.,0.,-0.00031203,0.,0.,-0.00167824,0.,0.,0.0000738
 9,0.,0.,-0.00381205,0.,0.,-0.01231313,0.,0.,0.00871546,0.00779852,-0.0
 3639169,0.,-0.00150609,0.00008271,0.,-0.00579633,0.00182106,0.,0.00908
 819,0.03617993,0.,-0.07232518,0.01312225,0.,0.00012639,0.00000067,0.,0
 .00029385,0.00144125,0.,0.00224137,-0.00592453,0.,0.00137913,0.0041231
 5,0.,-0.00611215,-0.00368044,0.,0.00042805,-0.00146275,0.,0.06438425,-
 0.00266090,-0.01143002,0.,0.00067254,0.00024072,0.,0.00075960,-0.00038
 192,0.,0.00182951,-0.01023785,0.,0.00798292,-0.44810283,0.,-0.00002856
 ,-0.00002241,0.,-0.00014009,-0.00035272,0.,-0.00200761,0.00121098,0.,0
 .00304087,0.00104884,0.,-0.00023501,0.00170218,0.,0.00009835,-0.000158
 44,0.,-0.00931162,0.46648347,0.,0.,-0.00222311,0.,0.,-0.00090560,0.,0.
 ,0.00062850,0.,0.,-0.00233205,0.,0.,-0.00138699,0.,0.,-0.00016942,0.,0
 .,0.00098918,0.,0.,-0.00127399,0.,0.,-0.00284050,0.,0.,0.00062128,0.,0
 .,0.00267752,0.,0.,0.00621519\\-0.02536934,-0.00409816,0.,0.07141867,0
 .07262059,0.,-0.05657558,-0.07208341,0.,0.00505597,0.05499270,0.,0.023
 33346,-0.01987359,0.,0.00192803,-0.00170163,0.,-0.00054954,0.00016413,
 0.,-0.02779991,-0.02575083,0.,0.01380260,-0.00144404,0.,-0.00837038,-0
 .00589891,0.,0.00312458,0.00239729,0.,0.00000144,0.00067588,0.\\\@


 The cat could very well be man's best friend
 but would never stoop to admitting it.
                               -- Doug Larson
 Job cpu time:       0 days  1 hours  0 minutes 20.8 seconds.
 Elapsed time:       0 days  0 hours  1 minutes 16.9 seconds.
 File lengths (MBytes):  RWF=    295 Int=      0 D2E=      0 Chk=     17 Scr=      1
 Normal termination of Gaussian 16 at Tue Nov 22 14:27:39 2022.
