   This run of MOLCAS is using the pymolcas driver

                             OPE
                             OPE          NMOL  CASOP  ENMOLC A   SO
                 OPE        NMOLC        AS  OP EN  MO LC     AS  OP
                OPENM       OL CA        SO  PE NM  OL CA     SOP EN
                OP EN      MO   LC       AS  OP ENMOL  CASO   PENMOL
                OP  EN     MO   LC       AS  OP EN     MO     LC ASO
               OP   E  NMOL  C  AS       OP  EN MO     LC     AS  OP
               OP  E   NMO   LC AS        OPEN  MO     LCASOP EN   M
               O  PEN   MO  LCA  SO
            OPE   NMO   L   CAS    OP
        OPENMOL  CASOP     ENMOL   CASOPE
     OPENMOLCA   SOPENMOLCASOPEN   MOLCASOPE
    OPENMOLCAS   OP           EN   MOL    CAS
    OPENMOLCAS       OP  ENM        O     LCA
    OPENMOLCAS    OPEN  MOLCASO     P  E  NMO
    OPENMOLCAS     OP               E  N  MOL
    OPENMOLCA   SO           PENM   O  L  CAS    OPEN    MO    LCAS
    OPENMOLCA   SOP           ENM   O  L  CAS   OP  EN  MOLC  AS   O
    OPENMOLCA   SOPE           NM      O  LCA   S      OP  EN MO
    OPENMOLC                AS         O  PEN   M      OL  CA  SOPE
    OPENMO        LCASOPE  NMOL        C  ASO   P      ENMOLC     AS
    OPE     NMO      LCA  SO     P     E   NM   OL  CA SO  PE N   MO
          OPENMOLCA            SOPE   NMO        LCAS  O    P  ENMO
     OPENMOLCASOPENMOLCASOPENMOLCASOPENMOLCA
        OPENMOLCASOPENMOLCASOPENMOLCASOPE
            OPENMOLCASOPENMOLCASOPENM
               OPENMOLCASOPENMOLCA        version: 22.06
                   OPENMOLCASO
                       OPE                tag: 360-g995f53266

 OpenMolcas is free software; you can redistribute it and/or modify it
 under the terms of the GNU Lesser General Public License version 2.1.
 OpenMolcas is distributed in the hope that it will be useful, but it
 is provided "as is" and without any express or implied warranties.
 For more details see the full text of the license in the file
 LICENSE or in <http://www.gnu.org/licenses/>.

                 Copyright (C) The OpenMolcas Authors
           For the author list and the recommended citation,
                   consult the file CONTRIBUTORS.md

           *************************************************
           * pymolcas version py2.06                       *
           *   build bf02a7b0d12655ada6bc2259076d6962      *
           *   (after the EMIL interpreter by V. Veryazov) *
           *************************************************

configuration info
------------------
Host name: qcexmaster (Linux)
C Compiler ID: GNU
C flags: -std=gnu99
Fortran Compiler ID: GNU
Fortran flags: -fno-aggressive-loop-optimizations -cpp -fdefault-integer-8 -fmax-stack-var-size=1048576
Definitions: _MOLCAS_;_I8_;_LINUX_
Parallel: OFF (GA=OFF)


   ----------------------------------------------------------------------------------------
  |
  |           Project: mp2
  |    Submitted from: /scr/marlenne/_mp2/Work
  |      Scratch area: /scr/marlenne/_mp2/Work
  |   Save outputs to: /home/marlenne/thymine/Thymine/MOLCAS/3.Ground_State/1.GS_non-planar
  |            Molcas: /soft/OPENMOLCAS/CASPT2-GRADIENTS/OpenMolcas/build
  |
  | Scratch area is empty
  |
  |    MOLCAS_DRIVER = /soft/bin/pymolcas
  |    MOLCAS_NPROCS = 1
  |     MOLCAS_PRINT = 3
  |    MOLCAS_SOURCE = /soft/OPENMOLCAS/CASPT2-GRADIENTS/OpenMolcas/build
  | MOLCAS_STRUCTURE = 0
  |
   ----------------------------------------------------------------------------------------

++ ---------   Input file   ---------

>>> EXPORT MOLCAS_MAXITER = 50

&GATEWAY
        coord=$HomeDir/scf.Opt.xyz
        basis=6-31G**
        group=nosymm
        RICD

>>> DO WHILE

  &SEWARD
          Doan

  &SCF

  &MBPT2
          Grdt

  &SLAPAF
          Iter=50

>>> END DO

-- ----------------------------------

>>> EXPORT MOLCAS_MAXITER = 50

--- Start Module: gateway at Thu Mar 30 11:17:47 2023 ---

()()()()()()()()()()()()()()()()()()()()()()()()()()()()()()()()()()()()()()()()()()()()()()()()()()

                                              &GATEWAY

                                   only a single process is used
                       available to each process: 4.0 GB of memory, 1 thread?
                                             pid: 28904
()()()()()()()()()()()()()()()()()()()()()()()()()()()()()()()()()()()()()()()()()()()()()()()()()()



 Basis Set     1 Label: N.6-31G**
 Basis set is read from library:basis_library 
 Basis Set Reference(s):
     P.C. Hariharan, J.A. Pople. Theor. Chim. Acta 28 (1973) 213-222. doi:10.1007/bf00533485
     NITROGEN (10s,4p,1d) -> [3s,2p,1d]




 Basis Set     2 Label: C.6-31G**
 Basis set is read from library:basis_library 
 Basis Set Reference(s):
     P.C. Hariharan, J.A. Pople. Theor. Chim. Acta 28 (1973) 213-222. doi:10.1007/bf00533485
     CARBON (10s,4p,1d) -> [3s,2p,1d]




 Basis Set     3 Label: N.6-31G**
 Basis set is read from library:basis_library 
 Basis Set Reference(s):
     P.C. Hariharan, J.A. Pople. Theor. Chim. Acta 28 (1973) 213-222. doi:10.1007/bf00533485
     NITROGEN (10s,4p,1d) -> [3s,2p,1d]




 Basis Set     4 Label: C.6-31G**
 Basis set is read from library:basis_library 
 Basis Set Reference(s):
     P.C. Hariharan, J.A. Pople. Theor. Chim. Acta 28 (1973) 213-222. doi:10.1007/bf00533485
     CARBON (10s,4p,1d) -> [3s,2p,1d]




 Basis Set     5 Label: O.6-31G**
 Basis set is read from library:basis_library 
 Basis Set Reference(s):
     P.C. Hariharan, J.A. Pople. Theor. Chim. Acta 28 (1973) 213-222. doi:10.1007/bf00533485
     OXYGEN (10s,4p,1d) -> [3s,2p,1d]




 Basis Set     6 Label: H.6-31G**
 Basis set is read from library:basis_library 
 Basis Set Reference(s):
     P.C. Hariharan, J.A. Pople. Theor. Chim. Acta 28 (1973) 213-222. doi:10.1007/bf00533485
     HYDROGEN (4s,1p) -> [2s,1p]




 Basis Set     7 Label: C.6-31G**
 Basis set is read from library:basis_library 
 Basis Set Reference(s):
     P.C. Hariharan, J.A. Pople. Theor. Chim. Acta 28 (1973) 213-222. doi:10.1007/bf00533485
     CARBON (10s,4p,1d) -> [3s,2p,1d]




 Basis Set     8 Label: H.6-31G**
 Basis set is read from library:basis_library 
 Basis Set Reference(s):
     P.C. Hariharan, J.A. Pople. Theor. Chim. Acta 28 (1973) 213-222. doi:10.1007/bf00533485
     HYDROGEN (4s,1p) -> [2s,1p]




 Basis Set    10 Label: N.6-31G**....acCD-aux-basis.
 On-the-fly basis set generation


 Basis Set    11 Label: N.6-31G**....acCD-aux-basis.
 On-the-fly basis set generation


 Basis Set    12 Label: C.6-31G**....acCD-aux-basis.
 On-the-fly basis set generation


 Basis Set    13 Label: C.6-31G**....acCD-aux-basis.
 On-the-fly basis set generation


 Basis Set    14 Label: N.6-31G**....acCD-aux-basis.
 On-the-fly basis set generation


 Basis Set    15 Label: N.6-31G**....acCD-aux-basis.
 On-the-fly basis set generation


 Basis Set    16 Label: C.6-31G**....acCD-aux-basis.
 On-the-fly basis set generation


 Basis Set    17 Label: C.6-31G**....acCD-aux-basis.
 On-the-fly basis set generation


 Basis Set    18 Label: O.6-31G**....acCD-aux-basis.
 On-the-fly basis set generation


 Basis Set    19 Label: O.6-31G**....acCD-aux-basis.
 On-the-fly basis set generation


 Basis Set    20 Label: H.6-31G**....acCD-aux-basis.
 On-the-fly basis set generation


 Basis Set    21 Label: C.6-31G**....acCD-aux-basis.
 On-the-fly basis set generation


 Basis Set    22 Label: C.6-31G**....acCD-aux-basis.
 On-the-fly basis set generation


 Basis Set    23 Label: H.6-31G**....acCD-aux-basis.
 On-the-fly basis set generation

  Weights used for alignment and distance                     
  mat. size =    15x    1
       14.0030740044299993
       12.0000000000000000
       14.0030740044299993
       12.0000000000000000
       12.0000000000000000
       12.0000000000000000
       15.9949146195700003
       15.9949146195700003
        1.0078250322300000
        1.0078250322300000
        1.0078250322300000
       12.0000000000000000
        1.0078250322300000
        1.0078250322300000
        1.0078250322300000


++    Symmetry information:
      ---------------------

                    Character Table for C1 

                             E  
                    a        1  x, y, xy, Rz, z, xz, Ry, yz, Rx, I
--


++    Basis set information:
      ----------------------


      Basis set label: N.6-31G**.........

      Electronic valence basis set:
      ------------------
      Associated Effective Charge   7.000000 au
      Associated Actual Charge      7.000000 au
      Nuclear Model: Point charge

      Shell  nPrim  nBasis  Cartesian Spherical Contaminant
         s      10       3        X                  
         p       4       2        X                  
         d       1       1        X                  

       Label   Cartesian Coordinates / Bohr

 N1                -2.2507362665       -1.7853221388       -0.1900151177


      Basis set label: C.6-31G**.........

      Electronic valence basis set:
      ------------------
      Associated Effective Charge   6.000000 au
      Associated Actual Charge      6.000000 au
      Nuclear Model: Point charge

      Shell  nPrim  nBasis  Cartesian Spherical Contaminant
         s      10       3        X                  
         p       4       2        X                  
         d       1       1        X                  

       Label   Cartesian Coordinates / Bohr

 C2                -2.3073524801        0.7754288385        0.1524197345


      Basis set label: N.6-31G**.........

      Electronic valence basis set:
      ------------------
      Associated Effective Charge   7.000000 au
      Associated Actual Charge      7.000000 au
      Nuclear Model: Point charge

      Shell  nPrim  nBasis  Cartesian Spherical Contaminant
         s      10       3        X                  
         p       4       2        X                  
         d       1       1        X                  

       Label   Cartesian Coordinates / Bohr

 N3                 0.0424732954        1.8632799177        0.1734012314


      Basis set label: C.6-31G**.........

      Electronic valence basis set:
      ------------------
      Associated Effective Charge   6.000000 au
      Associated Actual Charge      6.000000 au
      Nuclear Model: Point charge

      Shell  nPrim  nBasis  Cartesian Spherical Contaminant
         s      10       3        X                  
         p       4       2        X                  
         d       1       1        X                  

       Label   Cartesian Coordinates / Bohr

 C4                 2.3598568575        0.6730169264       -0.1077024838
 C5                 2.2268012222       -2.0808428959       -0.4666879732
 C6                -0.0500842052       -3.1435292672       -0.4873234990


      Basis set label: O.6-31G**.........

      Electronic valence basis set:
      ------------------
      Associated Effective Charge   8.000000 au
      Associated Actual Charge      8.000000 au
      Nuclear Model: Point charge

      Shell  nPrim  nBasis  Cartesian Spherical Contaminant
         s      10       3        X                  
         p       4       2        X                  
         d       1       1        X                  

       Label   Cartesian Coordinates / Bohr

 O7                -4.2211673405        1.9453289159        0.4081287999
 O8                 4.2758843037        1.8673771463       -0.0504873971


      Basis set label: H.6-31G**.........

      Electronic valence basis set:
      ------------------
      Associated Effective Charge   1.000000 au
      Associated Actual Charge      1.000000 au
      Nuclear Model: Point charge

      Shell  nPrim  nBasis  Cartesian Spherical Contaminant
         s       4       2        X                  
         p       1       1        X                  

       Label   Cartesian Coordinates / Bohr

 H9                -0.3108314315       -5.1399822478       -0.7391693594
 H10                0.0795978533        3.7312034028        0.4192583986
 H11               -3.9241250893       -2.6367878496       -0.2160844943


      Basis set label: C.6-31G**.........

      Electronic valence basis set:
      ------------------
      Associated Effective Charge   6.000000 au
      Associated Actual Charge      6.000000 au
      Nuclear Model: Point charge

      Shell  nPrim  nBasis  Cartesian Spherical Contaminant
         s      10       3        X                  
         p       4       2        X                  
         d       1       1        X                  

       Label   Cartesian Coordinates / Bohr

 C12                4.6656303203       -3.4980288491       -0.7851020064


      Basis set label: H.6-31G**.........

      Electronic valence basis set:
      ------------------
      Associated Effective Charge   1.000000 au
      Associated Actual Charge      1.000000 au
      Nuclear Model: Point charge

      Shell  nPrim  nBasis  Cartesian Spherical Contaminant
         s       4       2        X                  
         p       1       1        X                  

       Label   Cartesian Coordinates / Bohr

 H13                5.6986703279       -2.8097923330       -2.4150536978
 H14                5.8736595907       -3.2418455947        0.8496952264
 H15                4.3171775219       -5.5017764749       -1.0316516259
--


++    Molecular structure info:
      -------------------------

                    ************************************************ 
                    **** Cartesian Coordinates / Bohr, Angstrom **** 
                    ************************************************ 

     Center  Label                x              y              z                     x              y              z
        1      N1              -2.250736      -1.785322      -0.190015             -1.191038      -0.944752      -0.100552
        2      C2              -2.307352       0.775429       0.152420             -1.220998       0.410339       0.080657
        3      N3               0.042473       1.863280       0.173401              0.022476       0.986005       0.091760
        4      C4               2.359857       0.673017      -0.107702              1.248782       0.356145      -0.056994
        5      C5               2.226801      -2.080843      -0.466688              1.178372      -1.101135      -0.246961
        6      C6              -0.050084      -3.143529      -0.487323             -0.026503      -1.663484      -0.257880
        7      O7              -4.221167       1.945329       0.408129             -2.233746       1.029424       0.215972
        8      O8               4.275884       1.867377      -0.050487              2.262701       0.988173      -0.026717
        9      H9              -0.310831      -5.139982      -0.739169             -0.164485      -2.719961      -0.391152
       10      H10              0.079598       3.731203       0.419258              0.042121       1.974468       0.221862
       11      H11             -3.924125      -2.636788      -0.216084             -2.076558      -1.395328      -0.114347
       12      C12              4.665630      -3.498029      -0.785102              2.468945      -1.851077      -0.415458
       13      H13              5.698670      -2.809792      -2.415054              3.015606      -1.486878      -1.277991
       14      H14              5.873660      -3.241846       0.849695              3.108207      -1.715511       0.449639
       15      H15              4.317178      -5.501776      -1.031652              2.284552      -2.911415      -0.545927

                    *************************************** 
                    *    InterNuclear Distances / Bohr    * 
                    *************************************** 

               1 N1            2 C2            3 N3            4 C4            5 C5            6 C6    
    1 N1       0.000000
    2 C2       2.584166        0.000000
    3 N3       4.324717        2.589506        0.000000
    4 C4       5.225684        4.675574        2.620308        0.000000
    5 C5       4.495801        5.394454        4.553801        2.780345        0.000000
    6 C6       2.603073        4.567577        5.051065        4.529675        2.512755        0.000000
    7 O7       4.261236        2.257596        4.270885        6.722703        7.651906        6.640501
    8 O8       7.480538        6.676266        4.239329        2.258524        4.467707        6.634306
    9 H9       3.913891        6.306593        7.071300        6.428241        3.983988        2.029098
   10 H10      6.019446        3.808587        1.884400        3.850944        6.259015        6.935464
   11 H11      1.877739        3.793807        6.011340        7.103167        6.181082        3.916446
   12 C12      7.150078        8.231882        7.143944        4.813843        2.838607        4.738386
   13 H13      8.318257        9.140139        7.780120        5.348038        4.047391        6.072537
   14 H14      8.319151        9.140768        7.779615        5.346921        4.047267        6.073551
   15 H15      7.593278        9.202702        8.600541        6.543154        4.048659        4.993055

               7 O7            8 O8            9 H9           10 H10          11 H11          12 C12   
    7 O7       0.000000
    8 O8       8.509776        0.000000
    9 H9       8.173656        8.403293        0.000000
   10 H10      4.656829        4.615553        8.955017        0.000000
   11 H11      4.633969        9.357087        4.426679        7.548826        0.000000
   12 C12     10.489476        5.429470        5.240543        8.645460        8.651556        0.000000
   13 H13     11.357144        5.430599        6.659766        9.077000        9.872365        2.048801
   14 H14     11.358138        5.428386        6.661482        9.076334        9.874136        2.048787
   15 H15     11.420844        7.434300        4.651334       10.262073        8.763126        2.048710

              13 H13          14 H14          15 H15   
   13 H13      0.000000
   14 H14      3.297859        0.000000
   15 H15      3.327026        3.327069        0.000000

                    ******************************************* 
                    *    InterNuclear Distances / Angstrom    * 
                    ******************************************* 

               1 N1            2 C2            3 N3            4 C4            5 C5            6 C6    
    1 N1       0.000000
    2 C2       1.367482        0.000000
    3 N3       2.288542        1.370308        0.000000
    4 C4       2.765313        2.474207        1.386607        0.000000
    5 C5       2.379075        2.854622        2.409768        1.471295        0.000000
    6 C6       1.377487        2.417058        2.672909        2.397001        1.329692        0.000000
    7 O7       2.254949        1.194668        2.260055        3.557501        4.049214        3.514002
    8 O8       3.958530        3.532928        2.243356        1.195159        2.364209        3.510723
    9 H9       2.071142        3.337305        3.741971        3.401679        2.108236        1.073753
   10 H10      3.185353        2.015418        0.997181        2.037832        3.312128        3.670089
   11 H11      0.993657        2.007596        3.181064        3.758834        3.270888        2.072494
   12 C12      3.783658        4.356124        3.780413        2.547376        1.502126        2.507446
   13 H13      4.401832        4.836753        4.117062        2.830060        2.141787        3.213448
   14 H14      4.402305        4.837086        4.116795        2.829469        2.141721        3.213985
   15 H15      4.018190        4.869860        4.551210        3.462488        2.142458        2.642211

               7 O7            8 O8            9 H9           10 H10          11 H11          12 C12   
    7 O7       0.000000
    8 O8       4.503180        0.000000
    9 H9       4.325313        4.446831        0.000000
   10 H10      2.464288        2.442445        4.738791        0.000000
   11 H11      2.452191        4.951557        2.342498        3.994667        0.000000
   12 C12      5.550792        2.873152        2.773176        4.574980        4.578206        0.000000
   13 H13      6.009942        2.873749        3.524196        4.803341        5.224230        1.084179
   14 H14      6.010468        2.872578        3.525104        4.802989        5.225168        1.084171
   15 H15      6.043650        3.934062        2.461380        5.430455        4.637247        1.084130

              13 H13          14 H14          15 H15   
   13 H13      0.000000
   14 H14      1.745152        0.000000
   15 H15      1.760586        1.760609        0.000000

                    ************************************** 
                    *    Valence Bond Angles / Degree    * 
                    ************************************** 
                          Atom centers                 Phi
                      2 C2       1 N1       6 C6       123.42
                      2 C2       1 N1      11 H11      115.57
                      6 C6       1 N1      11 H11      121.01
                      1 N1       2 C2       3 N3       113.42
                      1 N1       2 C2       7 O7       123.17
                      3 N3       2 C2       7 O7       123.41
                      2 C2       3 N3       4 C4       127.65
                      2 C2       3 N3      10 H10      115.81
                      4 C4       3 N3      10 H10      116.54
                      3 N3       4 C4       5 C5       114.93
                      3 N3       4 C4       8 O8       120.49
                      5 C5       4 C4       8 O8       124.59
                      4 C4       5 C5       6 C6       117.60
                      4 C4       5 C5      12 C12      117.90
                      6 C6       5 C5      12 C12      124.50
                      1 N1       6 C6       5 C5       122.99
                      1 N1       6 C6       9 H9       114.77
                      5 C5       6 C6       9 H9       122.25
                      5 C5      12 C12     13 H13      110.78
                      5 C5      12 C12     14 H14      110.77
                      5 C5      12 C12     15 H15      110.83
                     13 H13     12 C12     14 H14      107.19
                     13 H13     12 C12     15 H15      108.58
                     14 H14     12 C12     15 H15      108.58

           ***************************************************************
           *              Valence Dihedral Angles / Degree               *
           ***************************************************************
                    Atom centers                       Phi1     Phi2     Theta 
           6 C6       1 N1       2 C2       7 O7        123.42   123.17   179.96
           2 C2       1 N1       6 C6       5 C5        123.42   122.99     0.03
           2 C2       1 N1       6 C6       9 H9        123.42   114.77  -179.97
           3 N3       2 C2       1 N1       6 C6        113.42   123.42    -0.05
           3 N3       2 C2       1 N1      11 H11       113.42   115.57  -179.97
           7 O7       2 C2       1 N1      11 H11       123.17   115.57     0.04
           1 N1       2 C2       3 N3       4 C4        113.42   127.65     0.05
           1 N1       2 C2       3 N3      10 H10       113.42   115.81  -179.99
           7 O7       2 C2       3 N3      10 H10       123.41   115.81    -0.00
           4 C4       3 N3       2 C2       7 O7        127.65   123.41  -179.96
           2 C2       3 N3       4 C4       5 C5        127.65   114.93    -0.03
           2 C2       3 N3       4 C4       8 O8        127.65   120.49   179.97
           5 C5       4 C4       3 N3      10 H10       114.93   116.54  -179.98
           8 O8       4 C4       3 N3      10 H10       120.49   116.54     0.02
           3 N3       4 C4       5 C5       6 C6        114.93   117.60     0.00
           3 N3       4 C4       5 C5      12 C12       114.93   117.90   179.98
           8 O8       4 C4       5 C5      12 C12       124.59   117.90    -0.02
           6 C6       5 C5       4 C4       8 O8        117.60   124.59  -180.00
           4 C4       5 C5       6 C6       9 H9        117.60   122.25   179.99
           4 C4       5 C5      12 C12     13 H13       117.90   110.78   -59.44
           4 C4       5 C5      12 C12     14 H14       117.90   110.77    59.37
           4 C4       5 C5      12 C12     15 H15       117.90   110.83   179.96
           6 C6       5 C5      12 C12     13 H13       124.50   110.78   120.54
           6 C6       5 C5      12 C12     14 H14       124.50   110.77  -120.65
           6 C6       5 C5      12 C12     15 H15       124.50   110.83    -0.06
           5 C5       6 C6       1 N1      11 H11       122.99   121.01   179.95
           9 H9       6 C6       1 N1      11 H11       114.77   121.01    -0.05
           1 N1       6 C6       5 C5       4 C4        122.99   117.60    -0.01
           1 N1       6 C6       5 C5      12 C12       122.99   124.50  -179.98
           9 H9       6 C6       5 C5      12 C12       122.25   124.50     0.01
--


++    Isotope specification:
      ----------------------

 Center
 Type   Z    A    mass (Da)
 --------------------------
    1   7   14    14.003074
    2   6   12    12.000000
    3   7   14    14.003074
    4   6   12    12.000000
    5   8   16    15.994915
    6   1    1     1.007825
    7   6   12    12.000000
    8   1    1     1.007825
--


++    Rigid rotor info:
      -----------------


                    Total mass (a) : 126.04293

                    Center of mass 
                          X          Y   
                       0.51186   -0.32475   -0.14283

                    Reference system based on center of mass
                    Coordinates and Masses of Atoms, in au and A
                          X          Y          Z        Mass
                      -2.76260   -1.46057   -0.04719   14.00307
                      -2.81922    1.10018    0.29525   12.00000
                      -0.46939    2.18803    0.31623   14.00307
                       1.84799    0.99777    0.03513   12.00000
                       1.71494   -1.75609   -0.32386   12.00000
                      -0.56195   -2.81878   -0.34450   12.00000
                      -4.73303    2.27008    0.55096   15.99491
                       3.76402    2.19213    0.09234   15.99491
                      -0.82270   -4.81523   -0.59634    1.00783
                      -0.43227    4.05596    0.56209    1.00783
                      -4.43599   -2.31203   -0.07326    1.00783
                       4.15377   -3.17327   -0.64227   12.00000
                       5.18681   -2.48504   -2.27223    1.00783
                       5.36179   -2.91709    0.99252    1.00783
                       3.80531   -5.17702   -0.88882    1.00783

                    The Moment of Inertia Tensor / au
                                     X          Y        Z     
                    X             0.1177E+07
                    Y             0.4087E+06 0.2172E+07
                    Z             0.1665E+06-0.1712E+06 0.3266E+07

                    The Principal Axes and Moments of Inertia (au)
                    Eigenvalues : 0.3298E+07 0.2307E+07 0.1010E+07
                                     X'         Y'       Z'    
                    Eigenvectors:
                    X             0.5235E-01 0.3518E+00 0.9346E+00
                    Y            -0.1316E+00 0.9301E+00-0.3428E+00
                    Z             0.9899E+00 0.1050E+00-0.9498E-01

                    The Rotational Constants
                            (cm-1)            (GHz)
                              0.033            0.998
                              0.048            1.426
                              0.109            3.256


                    *******************************************
                    *                                         *
                    * R I G I D - R O T O R   A N A L Y S I S *
                    *                                         *
                    *******************************************

                    j(Max):  5

                    Rotor Type: Linear Rotor
                    Asymmetry parameter: -0.621
                    Prolate = -1
                    Oblate  =  1


                    Rotational energies / cm-1

                    E(J= 0,kappa= 0) =        0.000

                    E(J= 1,kappa=-1) =        0.081
                    E(J= 1,kappa= 0) =        0.142
                    E(J= 1,kappa= 1) =        0.156

                    E(J= 2,kappa=-2) =        0.240
                    E(J= 2,kappa=-1) =        0.289
                    E(J= 2,kappa= 0) =        0.332
                    E(J= 2,kappa= 1) =        0.515
                    E(J= 2,kappa= 2) =        0.517

                    E(J= 3,kappa=-3) =        0.474
                    E(J= 3,kappa=-2) =        0.509
                    E(J= 3,kappa=-1) =        0.595
                    E(J= 3,kappa= 0) =        0.758
                    E(J= 3,kappa= 1) =        0.769
                    E(J= 3,kappa= 2) =        1.100
                    E(J= 3,kappa= 3) =        1.100

                    E(J= 4,kappa=-4) =        0.778
                    E(J= 4,kappa=-3) =        0.800
                    E(J= 4,kappa=-2) =        0.941
                    E(J= 4,kappa=-1) =        1.079
                    E(J= 4,kappa= 0) =        1.110
                    E(J= 4,kappa= 1) =        1.427
                    E(J= 4,kappa= 2) =        1.429
                    E(J= 4,kappa= 3) =        1.901
                    E(J= 4,kappa= 4) =        1.901

                    E(J= 5,kappa=-5) =        1.148
                    E(J= 5,kappa=-4) =        1.161
                    E(J= 5,kappa=-3) =        1.369
                    E(J= 5,kappa=-2) =        1.479
                    E(J= 5,kappa=-1) =        1.543
                    E(J= 5,kappa= 0) =        1.837
                    E(J= 5,kappa= 1) =        1.843
                    E(J= 5,kappa= 2) =        2.310
                    E(J= 5,kappa= 3) =        2.310
                    E(J= 5,kappa= 4) =        2.919
                    E(J= 5,kappa= 5) =        2.919
--


++    Primitive basis info:
      ---------------------


                    *****************************************************
                    ******** Primitive Basis Functions (Valence) ********
                    *****************************************************


 Basis set:N.6-31G**.........                                                              

                  Type         
                   s
           No.      Exponent    Contraction Coefficients
            1  0.417351146D+04   0.001835   0.000000   0.000000
            2  0.627457911D+03   0.013995   0.000000   0.000000
            3  0.142902093D+03   0.068587   0.000000   0.000000
            4  0.402343293D+02   0.232241   0.000000   0.000000
            5  0.128202129D+02   0.469070   0.000000   0.000000
            6  0.116263619D+02   0.000000  -0.114961   0.000000
            7  0.439043701D+01   0.360455   0.000000   0.000000
            8  0.271627981D+01   0.000000  -0.169117   0.000000
            9  0.772218397D+00   0.000000   1.145852   0.000000
           10  0.212031497D+00   0.000000   0.000000   1.000000

                  Type         
                   p
           No.      Exponent    Contraction Coefficients
           11  0.116263619D+02   0.067580   0.000000
           12  0.271627981D+01   0.323907   0.000000
           13  0.772218397D+00   0.740895   0.000000
           14  0.212031497D+00   0.000000   1.000000

                  Type         
                   d
           No.      Exponent    Contraction Coefficients
           15  0.800000000D+00   1.000000


 Basis set:C.6-31G**.........                                                              

                  Type         
                   s
           No.      Exponent    Contraction Coefficients
           16  0.304752488D+04   0.001835   0.000000   0.000000
           17  0.457369518D+03   0.014037   0.000000   0.000000
           18  0.103948685D+03   0.068843   0.000000   0.000000
           19  0.292101553D+02   0.232184   0.000000   0.000000
           20  0.928666296D+01   0.467941   0.000000   0.000000
           21  0.786827235D+01   0.000000  -0.119332   0.000000
           22  0.316392696D+01   0.362312   0.000000   0.000000
           23  0.188128854D+01   0.000000  -0.160854   0.000000
           24  0.544249258D+00   0.000000   1.143456   0.000000
           25  0.168714478D+00   0.000000   0.000000   1.000000

                  Type         
                   p
           No.      Exponent    Contraction Coefficients
           26  0.786827235D+01   0.068999   0.000000
           27  0.188128854D+01   0.316424   0.000000
           28  0.544249258D+00   0.744308   0.000000
           29  0.168714478D+00   0.000000   1.000000

                  Type         
                   d
           No.      Exponent    Contraction Coefficients
           30  0.800000000D+00   1.000000


 Basis set:N.6-31G**.........                                                              

                  Type         
                   s
           No.      Exponent    Contraction Coefficients
           31  0.417351146D+04   0.001835   0.000000   0.000000
           32  0.627457911D+03   0.013995   0.000000   0.000000
           33  0.142902093D+03   0.068587   0.000000   0.000000
           34  0.402343293D+02   0.232241   0.000000   0.000000
           35  0.128202129D+02   0.469070   0.000000   0.000000
           36  0.116263619D+02   0.000000  -0.114961   0.000000
           37  0.439043701D+01   0.360455   0.000000   0.000000
           38  0.271627981D+01   0.000000  -0.169117   0.000000
           39  0.772218397D+00   0.000000   1.145852   0.000000
           40  0.212031497D+00   0.000000   0.000000   1.000000

                  Type         
                   p
           No.      Exponent    Contraction Coefficients
           41  0.116263619D+02   0.067580   0.000000
           42  0.271627981D+01   0.323907   0.000000
           43  0.772218397D+00   0.740895   0.000000
           44  0.212031497D+00   0.000000   1.000000

                  Type         
                   d
           No.      Exponent    Contraction Coefficients
           45  0.800000000D+00   1.000000


 Basis set:C.6-31G**.........                                                              

                  Type         
                   s
           No.      Exponent    Contraction Coefficients
           46  0.304752488D+04   0.001835   0.000000   0.000000
           47  0.457369518D+03   0.014037   0.000000   0.000000
           48  0.103948685D+03   0.068843   0.000000   0.000000
           49  0.292101553D+02   0.232184   0.000000   0.000000
           50  0.928666296D+01   0.467941   0.000000   0.000000
           51  0.786827235D+01   0.000000  -0.119332   0.000000
           52  0.316392696D+01   0.362312   0.000000   0.000000
           53  0.188128854D+01   0.000000  -0.160854   0.000000
           54  0.544249258D+00   0.000000   1.143456   0.000000
           55  0.168714478D+00   0.000000   0.000000   1.000000

                  Type         
                   p
           No.      Exponent    Contraction Coefficients
           56  0.786827235D+01   0.068999   0.000000
           57  0.188128854D+01   0.316424   0.000000
           58  0.544249258D+00   0.744308   0.000000
           59  0.168714478D+00   0.000000   1.000000

                  Type         
                   d
           No.      Exponent    Contraction Coefficients
           60  0.800000000D+00   1.000000


 Basis set:O.6-31G**.........                                                              

                  Type         
                   s
           No.      Exponent    Contraction Coefficients
           91  0.548467166D+04   0.001831   0.000000   0.000000
           92  0.825234946D+03   0.013950   0.000000   0.000000
           93  0.188046958D+03   0.068445   0.000000   0.000000
           94  0.529645000D+02   0.232714   0.000000   0.000000
           95  0.168975704D+02   0.470193   0.000000   0.000000
           96  0.155396162D+02   0.000000  -0.110778   0.000000
           97  0.579963534D+01   0.358521   0.000000   0.000000
           98  0.359993359D+01   0.000000  -0.148026   0.000000
           99  0.101376175D+01   0.000000   1.130767   0.000000
          100  0.270005823D+00   0.000000   0.000000   1.000000

                  Type         
                   p
           No.      Exponent    Contraction Coefficients
          101  0.155396162D+02   0.070874   0.000000
          102  0.359993359D+01   0.339753   0.000000
          103  0.101376175D+01   0.727159   0.000000
          104  0.270005823D+00   0.000000   1.000000

                  Type         
                   d
           No.      Exponent    Contraction Coefficients
          105  0.800000000D+00   1.000000


 Basis set:H.6-31G**.........                                                              

                  Type         
                   s
           No.      Exponent    Contraction Coefficients
          121  0.187311370D+02   0.033495   0.000000
          122  0.282539437D+01   0.234727   0.000000
          123  0.640121692D+00   0.813757   0.000000
          124  0.161277759D+00   0.000000   1.000000

                  Type         
                   p
           No.      Exponent    Contraction Coefficients
          125  0.110000000D+01   1.000000


 Basis set:C.6-31G**.........                                                              

                  Type         
                   s
           No.      Exponent    Contraction Coefficients
          136  0.304752488D+04   0.001835   0.000000   0.000000
          137  0.457369518D+03   0.014037   0.000000   0.000000
          138  0.103948685D+03   0.068843   0.000000   0.000000
          139  0.292101553D+02   0.232184   0.000000   0.000000
          140  0.928666296D+01   0.467941   0.000000   0.000000
          141  0.786827235D+01   0.000000  -0.119332   0.000000
          142  0.316392696D+01   0.362312   0.000000   0.000000
          143  0.188128854D+01   0.000000  -0.160854   0.000000
          144  0.544249258D+00   0.000000   1.143456   0.000000
          145  0.168714478D+00   0.000000   0.000000   1.000000

                  Type         
                   p
           No.      Exponent    Contraction Coefficients
          146  0.786827235D+01   0.068999   0.000000
          147  0.188128854D+01   0.316424   0.000000
          148  0.544249258D+00   0.744308   0.000000
          149  0.168714478D+00   0.000000   1.000000

                  Type         
                   d
           No.      Exponent    Contraction Coefficients
          150  0.800000000D+00   1.000000


 Basis set:H.6-31G**.........                                                              

                  Type         
                   s
           No.      Exponent    Contraction Coefficients
          151  0.187311370D+02   0.033495   0.000000
          152  0.282539437D+01   0.234727   0.000000
          153  0.640121692D+00   0.813757   0.000000
          154  0.161277759D+00   0.000000   1.000000

                  Type         
                   p
           No.      Exponent    Contraction Coefficients
          155  0.110000000D+01   1.000000

  Number of primitives                                  294
  Number of basis functions                             165

--


++    SO/AO info:
      -----------

                    **************************************************
                    ********** Petite list Basis Functions ***********
                    **************************************************


           Basis functions generated by E  

 Basis Label        Type   Center
    1  N1            1s       1
    2  N1            2s       1
    3  N1            *s       1
    4  N1            2px      1
    5  N1            *px      1
    6  N1            2py      1
    7  N1            *py      1
    8  N1            2pz      1
    9  N1            *pz      1
   10  N1            *200     1
   11  N1            *110     1
   12  N1            *101     1
   13  N1            *020     1
   14  N1            *011     1
   15  N1            *002     1
   16  C2            1s       2
   17  C2            2s       2
   18  C2            *s       2
   19  C2            2px      2
   20  C2            *px      2
   21  C2            2py      2
   22  C2            *py      2
   23  C2            2pz      2
   24  C2            *pz      2
   25  C2            *200     2
   26  C2            *110     2
   27  C2            *101     2
   28  C2            *020     2
   29  C2            *011     2
   30  C2            *002     2
   31  N3            1s       3
   32  N3            2s       3
   33  N3            *s       3
   34  N3            2px      3
   35  N3            *px      3
   36  N3            2py      3
   37  N3            *py      3
   38  N3            2pz      3
   39  N3            *pz      3
   40  N3            *200     3
   41  N3            *110     3
   42  N3            *101     3
   43  N3            *020     3
   44  N3            *011     3
   45  N3            *002     3
   46  C4            1s       4
   47  C4            2s       4
   48  C4            *s       4
   49  C4            2px      4
   50  C4            *px      4
   51  C4            2py      4
   52  C4            *py      4
   53  C4            2pz      4
   54  C4            *pz      4
   55  C4            *200     4
   56  C4            *110     4
   57  C4            *101     4
   58  C4            *020     4
   59  C4            *011     4
   60  C4            *002     4
   61  C5            1s       5
   62  C5            2s       5
   63  C5            *s       5
   64  C5            2px      5
   65  C5            *px      5
   66  C5            2py      5
   67  C5            *py      5
   68  C5            2pz      5
   69  C5            *pz      5
   70  C5            *200     5
   71  C5            *110     5
   72  C5            *101     5
   73  C5            *020     5
   74  C5            *011     5
   75  C5            *002     5
   76  C6            1s       6
   77  C6            2s       6
   78  C6            *s       6
   79  C6            2px      6
   80  C6            *px      6
   81  C6            2py      6
   82  C6            *py      6
   83  C6            2pz      6
   84  C6            *pz      6
   85  C6            *200     6
   86  C6            *110     6
   87  C6            *101     6
   88  C6            *020     6
   89  C6            *011     6
   90  C6            *002     6
   91  O7            1s       7
   92  O7            2s       7
   93  O7            *s       7
   94  O7            2px      7
   95  O7            *px      7
   96  O7            2py      7
   97  O7            *py      7
   98  O7            2pz      7
   99  O7            *pz      7
  100  O7            *200     7
  101  O7            *110     7
  102  O7            *101     7
  103  O7            *020     7
  104  O7            *011     7
  105  O7            *002     7
  106  O8            1s       8
  107  O8            2s       8
  108  O8            *s       8
  109  O8            2px      8
  110  O8            *px      8
  111  O8            2py      8
  112  O8            *py      8
  113  O8            2pz      8
  114  O8            *pz      8
  115  O8            *200     8
  116  O8            *110     8
  117  O8            *101     8
  118  O8            *020     8
  119  O8            *011     8
  120  O8            *002     8
  121  H9            1s       9
  122  H9            *s       9
  123  H9            *px      9
  124  H9            *py      9
  125  H9            *pz      9
  126  H10           1s      10
  127  H10           *s      10
  128  H10           *px     10
  129  H10           *py     10
  130  H10           *pz     10
  131  H11           1s      11
  132  H11           *s      11
  133  H11           *px     11
  134  H11           *py     11
  135  H11           *pz     11
  136  C12           1s      12
  137  C12           2s      12
  138  C12           *s      12
  139  C12           2px     12
  140  C12           *px     12
  141  C12           2py     12
  142  C12           *py     12
  143  C12           2pz     12
  144  C12           *pz     12
  145  C12           *200    12
  146  C12           *110    12
  147  C12           *101    12
  148  C12           *020    12
  149  C12           *011    12
  150  C12           *002    12
  151  H13           1s      13
  152  H13           *s      13
  153  H13           *px     13
  154  H13           *py     13
  155  H13           *pz     13
  156  H14           1s      14
  157  H14           *s      14
  158  H14           *px     14
  159  H14           *py     14
  160  H14           *pz     14
  161  H15           1s      15
  162  H15           *s      15
  163  H15           *px     15
  164  H15           *py     15
  165  H15           *pz     15

      Basis set specifications :
      Symmetry species        a  
      Basis functions         165
--


            Nuclear Potential Energy            443.14494115 au

--- Stop Module: gateway at Thu Mar 30 11:17:48 2023 /rc=_RC_ALL_IS_WELL_ ---
*** files: mp2.RICDLib xmldump
    saved to directory /home/marlenne/thymine/Thymine/MOLCAS/3.Ground_State/1.GS_non-planar

--- Start Module: seward at Thu Mar 30 11:17:49 2023 ---

()()()()()()()()()()()()()()()()()()()()()()()()()()()()()()()()()()()()()()()()()()()()()()()()()()

                                              &SEWARD

                                   only a single process is used
                       available to each process: 4.0 GB of memory, 1 thread?
                                             pid: 28907
()()()()()()()()()()()()()()()()()()()()()()()()()()()()()()()()()()()()()()()()()()()()()()()()()()


  Weights used for alignment and distance                     
  mat. size =    15x    1
       14.0030740044299993
       12.0000000000000000
       14.0030740044299993
       12.0000000000000000
       12.0000000000000000
       12.0000000000000000
       15.9949146195700003
       15.9949146195700003
        1.0078250322300000
        1.0078250322300000
        1.0078250322300000
       12.0000000000000000
        1.0078250322300000
        1.0078250322300000
        1.0078250322300000

               SEWARD will generate:
                  Multipole Moment integrals up to order  2
                  Kinetic Energy integrals
                  Nuclear Attraction integrals (point charge)
                  One-Electron Hamiltonian integrals
                  Velocity integrals
                  Orbital angular momentum around ( 0.5119 -0.3248 -0.1428 )
                  Velocity quadrupole around ( 0.5119 -0.3248 -0.1428 )
                  RI decomposed two-electron repulsion integrals stored Cholesky style
                   - acCD auxiliary basis
                   - CD Threshold:   0.10E-03

                   Integrals are discarded if absolute value <: 0.10E-13
                   Integral cutoff threshold is set to       <: 0.10E-15

++    SO/AO info:
      -----------

                    **************************************************
                    ********** Petite list Basis Functions ***********
                    **************************************************


           Basis functions generated by E  

 Basis Label        Type   Center
    1  N1            1s       1
    2  N1            2s       1
    3  N1            *s       1
    4  N1            2px      1
    5  N1            *px      1
    6  N1            2py      1
    7  N1            *py      1
    8  N1            2pz      1
    9  N1            *pz      1
   10  N1            *200     1
   11  N1            *110     1
   12  N1            *101     1
   13  N1            *020     1
   14  N1            *011     1
   15  N1            *002     1
   16  C2            1s       2
   17  C2            2s       2
   18  C2            *s       2
   19  C2            2px      2
   20  C2            *px      2
   21  C2            2py      2
   22  C2            *py      2
   23  C2            2pz      2
   24  C2            *pz      2
   25  C2            *200     2
   26  C2            *110     2
   27  C2            *101     2
   28  C2            *020     2
   29  C2            *011     2
   30  C2            *002     2
   31  N3            1s       3
   32  N3            2s       3
   33  N3            *s       3
   34  N3            2px      3
   35  N3            *px      3
   36  N3            2py      3
   37  N3            *py      3
   38  N3            2pz      3
   39  N3            *pz      3
   40  N3            *200     3
   41  N3            *110     3
   42  N3            *101     3
   43  N3            *020     3
   44  N3            *011     3
   45  N3            *002     3
   46  C4            1s       4
   47  C4            2s       4
   48  C4            *s       4
   49  C4            2px      4
   50  C4            *px      4
   51  C4            2py      4
   52  C4            *py      4
   53  C4            2pz      4
   54  C4            *pz      4
   55  C4            *200     4
   56  C4            *110     4
   57  C4            *101     4
   58  C4            *020     4
   59  C4            *011     4
   60  C4            *002     4
   61  C5            1s       5
   62  C5            2s       5
   63  C5            *s       5
   64  C5            2px      5
   65  C5            *px      5
   66  C5            2py      5
   67  C5            *py      5
   68  C5            2pz      5
   69  C5            *pz      5
   70  C5            *200     5
   71  C5            *110     5
   72  C5            *101     5
   73  C5            *020     5
   74  C5            *011     5
   75  C5            *002     5
   76  C6            1s       6
   77  C6            2s       6
   78  C6            *s       6
   79  C6            2px      6
   80  C6            *px      6
   81  C6            2py      6
   82  C6            *py      6
   83  C6            2pz      6
   84  C6            *pz      6
   85  C6            *200     6
   86  C6            *110     6
   87  C6            *101     6
   88  C6            *020     6
   89  C6            *011     6
   90  C6            *002     6
   91  O7            1s       7
   92  O7            2s       7
   93  O7            *s       7
   94  O7            2px      7
   95  O7            *px      7
   96  O7            2py      7
   97  O7            *py      7
   98  O7            2pz      7
   99  O7            *pz      7
  100  O7            *200     7
  101  O7            *110     7
  102  O7            *101     7
  103  O7            *020     7
  104  O7            *011     7
  105  O7            *002     7
  106  O8            1s       8
  107  O8            2s       8
  108  O8            *s       8
  109  O8            2px      8
  110  O8            *px      8
  111  O8            2py      8
  112  O8            *py      8
  113  O8            2pz      8
  114  O8            *pz      8
  115  O8            *200     8
  116  O8            *110     8
  117  O8            *101     8
  118  O8            *020     8
  119  O8            *011     8
  120  O8            *002     8
  121  H9            1s       9
  122  H9            *s       9
  123  H9            *px      9
  124  H9            *py      9
  125  H9            *pz      9
  126  H10           1s      10
  127  H10           *s      10
  128  H10           *px     10
  129  H10           *py     10
  130  H10           *pz     10
  131  H11           1s      11
  132  H11           *s      11
  133  H11           *px     11
  134  H11           *py     11
  135  H11           *pz     11
  136  C12           1s      12
  137  C12           2s      12
  138  C12           *s      12
  139  C12           2px     12
  140  C12           *px     12
  141  C12           2py     12
  142  C12           *py     12
  143  C12           2pz     12
  144  C12           *pz     12
  145  C12           *200    12
  146  C12           *110    12
  147  C12           *101    12
  148  C12           *020    12
  149  C12           *011    12
  150  C12           *002    12
  151  H13           1s      13
  152  H13           *s      13
  153  H13           *px     13
  154  H13           *py     13
  155  H13           *pz     13
  156  H14           1s      14
  157  H14           *s      14
  158  H14           *px     14
  159  H14           *py     14
  160  H14           *pz     14
  161  H15           1s      15
  162  H15           *s      15
  163  H15           *px     15
  164  H15           *py     15
  165  H15           *pz     15

      Basis set specifications :
      Symmetry species        a  
      Basis functions         165
--


            Nuclear Potential Energy            443.14494115 au


      Basis set specifications :
      Symmetry species         a  
      Basis functions          165


Seward processing 2-center and 3-center ERIs

 2-center integrals:
      CPU time :    0.18 sec.
      Wall time:    0.19 sec.
 3-center integrals:
      CPU time :    1.28 sec.
      Wall time:    1.32 sec.
 Block-transpose:
      CPU time :    0.04 sec.
      Wall time:    0.08 sec.
 Diagonal vector:
      CPU time :    0.03 sec.
      Wall time:    0.03 sec.
      RI vectors               720



      Input file to MOLDEN was generated!

++ I/O STATISTICS
 
  I. General I/O information
  - - - - - - - - - - - - - - - - - - - - - - - - - - - - - - - - - - - - - - - - - - -
  Unit  Name          Flsize      Write/Read            MBytes           Write/Read
                      (MBytes)       Calls              In/Out           Time, sec.
  - - - - - - - - - - - - - - - - - - - - - - - - - - - - - - - - - - - - - - - - - - -
   1  RUNFILE           0.70 .    1386/    7892 .     10.2/     57.9 .       0/       0
   2  NQGRID            0.00 .       4/       0 .      0.0/      0.0 .       0/       0
   3  ONEINT            4.40 .      62/     110 .     47.6/     17.0 .       0/       0
   4  AVEC00            0.00 .     721/    1441 .      5.9/     11.9 .       0/       0
   5  ZMAT00            0.00 .       1/       0 .      4.0/      0.0 .       0/       0
   6  AMAT00            1.98 .       2/       1 .      4.0/      2.0 .       0/       0
   7  QMAT00            0.00 .       1/       1 .      2.0/      2.0 .       0/       0
   8  QVEC00            3.96 .     720/       1 .      4.0/      4.0 .       0/       0
   9  RVEC00           74.59 .     770/     770 .     74.6/     74.6 .       0/       0
  10  CHRED             0.22 .       4/       0 .      0.2/      0.0 .       0/       0
  11  CHVEC1           74.59 .       1/       0 .     74.6/      0.0 .       0/       0
  12  CHORST            0.03 .      12/       0 .      0.0/      0.0 .       0/       0
  13  CHOMAP            0.01 .       1/       0 .      0.0/      0.0 .       0/       0
  14  CHODIAG           0.10 .       1/       0 .      0.1/      0.0 .       0/       0
  - - - - - - - - - - - - - - - - - - - - - - - - - - - - - - - - - - - - - - - - - - -
   *  TOTAL           160.56 .    3686/   10216 .    227.1/    169.2 .       0/       0
  - - - - - - - - - - - - - - - - - - - - - - - - - - - - - - - - - - - - - - - - - - -
 
  II. I/O Access Patterns
  - - - - - - - - - - - - - - - - - - - -
  Unit  Name               % of random
                         Write/Read calls
  - - - - - - - - - - - - - - - - - - - -
   1  RUNFILE             28.6/   9.9
   2  NQGRID              25.0/   0.0
   3  ONEINT              95.2/  10.9
   4  AVEC00              99.9/ 100.0
   5  ZMAT00               0.0/   0.0
   6  AMAT00              50.0/ 100.0
   7  QMAT00               0.0/ 100.0
   8  QVEC00               0.0/ 100.0
   9  RVEC00               0.0/   0.1
  10  CHRED                0.0/   0.0
  11  CHVEC1               0.0/   0.0
  12  CHORST               0.0/   0.0
  13  CHOMAP               0.0/   0.0
  14  CHODIAG              0.0/   0.0
  - - - - - - - - - - - - - - - - - - - -
--
--- Stop Module: seward at Thu Mar 30 11:17:52 2023 /rc=_RC_ALL_IS_WELL_ ---
*** files: mp2.GssOrb mp2.guessorb.molden xmldump
    saved to directory /home/marlenne/thymine/Thymine/MOLCAS/3.Ground_State/1.GS_non-planar
--- Module seward spent 2 seconds ---

*** symbolic link created: INPORB -> mp2.GssOrb
--- Start Module: scf at Thu Mar 30 11:17:54 2023 ---

()()()()()()()()()()()()()()()()()()()()()()()()()()()()()()()()()()()()()()()()()()()()()()()()()()

                                                &SCF

                                   only a single process is used
                       available to each process: 4.0 GB of memory, 1 thread?
                                             pid: 28958
()()()()()()()()()()()()()()()()()()()()()()()()()()()()()()()()()()()()()()()()()()()()()()()()()()

++    Input section:
      --------------

      Header of the integral files:
      
       Integrals generated by Gateway/Seward, Thu Mar 30 11:17:50 2023


      Cartesian coordinates in Angstrom:
      -----------------------------------------------------
      No.  Label        X            Y            Z        
      -----------------------------------------------------
       1   N1        -1.19103834  -0.94475179  -0.10055167
       2   C2        -1.22099835   0.41033927   0.08065705
       3   N3         0.02247590   0.98600527   0.09175998
       4   C4         1.24878247   0.35614522  -0.05699370
       5   C5         1.17837246  -1.10113464  -0.24696064
       6   C6        -0.02650342  -1.66348405  -0.25788049
       7   O7        -2.23374556   1.02942373   0.21597246
       8   O8         2.26270053   0.98817343  -0.02671678
       9   H9        -0.16448491  -2.71996147  -0.39115158
      10   H10        0.04212137   1.97446781   0.22186199
      11   H11       -2.07655757  -1.39532804  -0.11434699
      12   C12        2.46894524  -1.85107715  -0.41545809
      13   H13        3.01560647  -1.48687807  -1.27799138
      14   H14        3.10820680  -1.71551081   0.44963935
      15   H15        2.28455196  -2.91141473  -0.54592653
      -----------------------------------------------------
      Nuclear repulsion energy =  443.14494115
--

++    Orbital specifications:
      -----------------------

      Symmetry species               1
                                     a
      Frozen orbitals                0
      Occupied orbitals             33
      Secondary orbitals           132
      Deleted orbitals               0
      Total number of orbitals     165
      Number of basis functions    165
--

      Molecular charge                           0.000

++    Optimization specifications:
      ----------------------------

      SCF Algorithm: LK-RI/DF
      The actual AO density is used
      Number of density matrices in core                5
      Maximum number of NDDO SCF iterations           400
      Maximum number of HF SCF iterations             400
      Threshold for SCF energy change            0.10E-08
      Threshold for density matrix               0.10E-03
      Threshold for Fock matrix                  0.15E-03
      Threshold for linear dependence            0.10E-08
      Threshold at which DIIS is turned on       0.15E+00
      Threshold at which QNR/C2DIIS is turned on 0.75E-01
      Threshold for Norm(delta) (QNR/C2DIIS)     0.20E-04
      DIIS extrapolation of the SCF procedure
      All orbitals punched on: SCFORB
--

      Input vectors read from INPORB
      Orbital file label: *Guess orbitals


++ Convergence information
                                   SCF        iterations: Energy and convergence statistics

Iter     Tot. SCF        One-elec.       Two-elec.     Energy      Max Dij or  Max Fij      DNorm      TNorm      AccCon     Time
         Energy          Energy          Energy        Change      Delta Norm                                                in Sec.
   1  -450.249166429 -1485.178447845   591.784340270   0.00E+00    0.52E+00*   0.15E+00*    0.92E+01   0.44E+03   None         1.
   2  -451.082444804 -1497.688011589   603.460625638  -0.83E+00*   0.40E+00*   0.15E+00*    0.98E+01   0.44E+03   EDIIS        1.
   3  -451.256657067 -1492.630741884   598.229143671  -0.17E+00*   0.63E-01*   0.67E-01*    0.94E+01   0.44E+03   EDIIS        1.
   4  -451.513952488 -1494.347426986   599.688533352  -0.26E+00*   0.51E-01*   0.21E-01*    0.95E+01   0.44E+03   EDIIS        1.
   5  -451.517749457 -1494.178466010   599.515775407  -0.38E-02*   0.13E-01*   0.97E-02*    0.95E+01   0.44E+03   EDIIS        1.
   6  -451.523424738 -1494.338341290   599.669975405  -0.57E-02*   0.44E-02*   0.24E-02*    0.95E+01   0.44E+03   c2DIIS       1.
   7  -451.523742018 -1494.296293452   599.627610288  -0.32E-03*   0.26E-02*   0.61E-03*    0.95E+01   0.44E+03   QNRc2DIIS    1.
   8  -451.523760366 -1494.304164312   599.635462800  -0.18E-04*   0.28E-02*   0.39E-03*    0.95E+01   0.44E+03   QNRc2DIIS    1.
   9  -451.523765453 -1494.301848456   599.633141856  -0.51E-05*   0.52E-03*   0.16E-03*    0.95E+01   0.44E+03   QNRc2DIIS    1.
  10  -451.523766124 -1494.301849412   599.633142142  -0.67E-06*   0.15E-03*   0.23E-04     0.95E+01   0.44E+03   QNRc2DIIS    1.
  11  -451.523766159 -1494.302362157   599.633654852  -0.35E-07*   0.47E-04*   0.85E-05     0.95E+01   0.44E+03   QNRc2DIIS    1.
  12  -451.523766163 -1494.302162540   599.633455231  -0.40E-08*   0.16E-04    0.32E-05     0.95E+01   0.44E+03   QNRc2DIIS    1.
  13  -451.523766163 -1494.302042253   599.633334944  -0.74E-10    0.93E-05    0.13E-05     0.95E+01   0.44E+03   QNRc2DIIS    1.

       Convergence after 13 Macro Iterations
--

 *****************************************************************************************************************************
 *                                                                                                                           *
 *                                             SCF/KS-DFT Program, Final results                                             *
 *                                                                                                                           *
 *                                                                                                                           *
 *                                                                                                                           *
 *                                                       Final Results                                                       *
 *                                                                                                                           *
 *****************************************************************************************************************************

::    Total SCF energy                               -451.5237661626
      One-electron energy                           -1494.3020422529
      Two-electron energy                             599.6333349440
      Nuclear repulsion energy                        443.1449411463
      Kinetic energy (interpolated)                   450.7600018414
      Virial theorem                                    1.0016943924
      Total spin, S(S+1)                                0.0000000000
      Total spin, S                                     0.0000000000
      Max non-diagonal density matrix element           0.0000113933
      Max non-diagonal Fock matrix element              0.0000013299


      All orbitals with orbital energies smaller than  E(LUMO)+0.5 are printed

++    Molecular orbitals:
      -------------------

      Title: SCF orbitals

      Molecular orbitals for symmetry species 1: a  

          Orbital            1         2         3         4         5         6         7         8         9        10    
          Energy          -20.5452  -20.5419  -15.6341  -15.6204  -11.4070  -11.3722  -11.3211  -11.2550  -11.2360   -1.4408
          Occ. No.          2.0000    2.0000    2.0000    2.0000    2.0000    2.0000    2.0000    2.0000    2.0000    2.0000

        1 N1     1s        -0.0000   -0.0000    0.9950    0.0008   -0.0003    0.0000   -0.0002    0.0001   -0.0000   -0.0644
        2 N1     2s        -0.0000   -0.0001    0.0256    0.0000    0.0004    0.0002    0.0005    0.0001   -0.0002    0.1292
        3 N1     *s         0.0002    0.0004   -0.0049   -0.0007   -0.0006   -0.0024   -0.0012   -0.0024    0.0014    0.1472
        4 N1     2px        0.0000    0.0000    0.0002    0.0000    0.0000   -0.0000    0.0002    0.0000   -0.0000    0.0035
        5 N1     *px        0.0000    0.0001   -0.0014   -0.0008   -0.0003   -0.0000   -0.0030   -0.0011    0.0006    0.0189
        6 N1     2py        0.0000   -0.0000    0.0001   -0.0001    0.0001    0.0000   -0.0001   -0.0000   -0.0000    0.0397
        7 N1     *py        0.0001    0.0002   -0.0009    0.0000   -0.0015   -0.0017    0.0014   -0.0002    0.0000    0.0278
        8 N1     2pz        0.0000   -0.0000   -0.0000   -0.0000    0.0000    0.0000   -0.0000   -0.0000    0.0000    0.0051
        9 N1     *pz        0.0000    0.0000   -0.0000    0.0000   -0.0002   -0.0002    0.0004    0.0000   -0.0000    0.0027
       10 N1     *200      -0.0000   -0.0000   -0.0019    0.0000   -0.0002    0.0000   -0.0004    0.0002   -0.0000    0.0000
       11 N1     *110       0.0000    0.0001    0.0001   -0.0000   -0.0000   -0.0001    0.0003    0.0000   -0.0000   -0.0026
       12 N1     *101       0.0000    0.0000    0.0000   -0.0000    0.0000   -0.0000    0.0001   -0.0000   -0.0000   -0.0006
       13 N1     *020      -0.0000    0.0000   -0.0020    0.0000   -0.0004    0.0000   -0.0002    0.0001   -0.0000    0.0053
       14 N1     *011      -0.0000    0.0000   -0.0000    0.0000   -0.0001   -0.0000   -0.0001    0.0000    0.0000    0.0023
       15 N1     *002       0.0000   -0.0000   -0.0019   -0.0000    0.0001    0.0000    0.0001    0.0001   -0.0001   -0.0025
       16 C2     1s         0.0000   -0.0000    0.0000    0.0000    0.9958    0.0003    0.0001    0.0000   -0.0000   -0.1256
       17 C2     2s         0.0001    0.0004    0.0002    0.0002    0.0264   -0.0006   -0.0004   -0.0000   -0.0000    0.2491
       18 C2     *s        -0.0000   -0.0009    0.0018    0.0017   -0.0017   -0.0007    0.0009    0.0008   -0.0000    0.0115
       19 C2     2px        0.0000    0.0001    0.0000    0.0002    0.0006   -0.0002    0.0000    0.0000   -0.0000   -0.0742
       20 C2     *px       -0.0002    0.0005    0.0008    0.0022   -0.0036    0.0015    0.0047    0.0012   -0.0001    0.0015
       21 C2     2py        0.0000   -0.0001   -0.0003    0.0001   -0.0003   -0.0001    0.0000   -0.0000    0.0000    0.0476
       22 C2     *py        0.0003   -0.0003   -0.0020    0.0002    0.0023   -0.0042   -0.0000   -0.0006    0.0004    0.0005
       23 C2     2pz        0.0000   -0.0000   -0.0000   -0.0000   -0.0001   -0.0000    0.0000   -0.0000    0.0000    0.0102
       24 C2     *pz        0.0001   -0.0001   -0.0003   -0.0001    0.0005   -0.0006   -0.0003   -0.0001    0.0001   -0.0000
       25 C2     *200       0.0000   -0.0004   -0.0000   -0.0001   -0.0004   -0.0000    0.0000   -0.0000   -0.0000    0.0080
       26 C2     *110       0.0000    0.0005   -0.0000   -0.0001   -0.0003    0.0000   -0.0001   -0.0000    0.0000   -0.0145
       27 C2     *101       0.0000    0.0001   -0.0000   -0.0000   -0.0002   -0.0000   -0.0000   -0.0000    0.0000   -0.0040
       28 C2     *020       0.0000   -0.0002   -0.0001   -0.0001   -0.0006   -0.0001    0.0001   -0.0000    0.0000   -0.0001
       29 C2     *011      -0.0000   -0.0001   -0.0000   -0.0000    0.0002    0.0000    0.0000    0.0000    0.0000    0.0038
       30 C2     *002       0.0000   -0.0000   -0.0000   -0.0000   -0.0014   -0.0001   -0.0001   -0.0000   -0.0000   -0.0111
       31 N3     1s        -0.0000   -0.0000   -0.0008    0.9950   -0.0003   -0.0003    0.0001    0.0001   -0.0001   -0.0744
       32 N3     2s        -0.0001   -0.0001    0.0000    0.0257    0.0003    0.0003    0.0003    0.0001   -0.0002    0.1498
       33 N3     *s         0.0002    0.0003   -0.0008   -0.0054   -0.0003    0.0009   -0.0036   -0.0017    0.0021    0.1648
       34 N3     2px       -0.0000    0.0000    0.0001   -0.0001   -0.0001    0.0002   -0.0000   -0.0000   -0.0000   -0.0214
       35 N3     *px        0.0002   -0.0001   -0.0004    0.0000    0.0016   -0.0037    0.0015    0.0000    0.0011   -0.0077
       36 N3     2py        0.0000    0.0000    0.0000   -0.0002   -0.0001   -0.0000   -0.0000   -0.0000    0.0000   -0.0219
       37 N3     *py       -0.0000   -0.0002    0.0007    0.0016    0.0008   -0.0002    0.0014    0.0007   -0.0006   -0.0289
       38 N3     2pz        0.0000    0.0000   -0.0000   -0.0000   -0.0000   -0.0000   -0.0000   -0.0000    0.0000   -0.0018
       39 N3     *pz       -0.0000   -0.0000    0.0001    0.0002    0.0000    0.0002    0.0001    0.0001   -0.0001   -0.0035
       40 N3     *200      -0.0001   -0.0001    0.0000   -0.0020   -0.0003   -0.0004    0.0001    0.0001   -0.0000    0.0072
       41 N3     *110      -0.0001    0.0001   -0.0000    0.0000   -0.0002    0.0003   -0.0001   -0.0000   -0.0001    0.0017
       42 N3     *101      -0.0000    0.0000   -0.0000    0.0000    0.0000    0.0001   -0.0000   -0.0000   -0.0000   -0.0008
       43 N3     *020       0.0000    0.0001    0.0000   -0.0019   -0.0002   -0.0002    0.0001    0.0001   -0.0001   -0.0004
       44 N3     *011       0.0000    0.0000    0.0000   -0.0000   -0.0001   -0.0001    0.0000    0.0000    0.0000    0.0006
       45 N3     *002      -0.0000   -0.0000   -0.0000   -0.0019    0.0001    0.0000    0.0001    0.0000   -0.0001   -0.0030
       46 C4     1s        -0.0000    0.0000   -0.0000   -0.0000   -0.0005    0.9959   -0.0001   -0.0035    0.0001   -0.0596
       47 C4     2s         0.0004    0.0001   -0.0000    0.0001   -0.0007    0.0270   -0.0003   -0.0000   -0.0002    0.1195
       48 C4     *s        -0.0007   -0.0003    0.0015    0.0021    0.0022   -0.0066    0.0017    0.0052   -0.0010   -0.0051
       49 C4     2px       -0.0001   -0.0000   -0.0000   -0.0002    0.0001   -0.0005   -0.0000   -0.0001   -0.0001    0.0186
       50 C4     *px       -0.0005    0.0004   -0.0007   -0.0026   -0.0037    0.0039   -0.0004   -0.0004    0.0015    0.0199
       51 C4     2py       -0.0001    0.0000    0.0000    0.0001   -0.0000    0.0006    0.0000    0.0001    0.0000    0.0387
       52 C4     *py       -0.0006    0.0004   -0.0007   -0.0001   -0.0040    0.0075   -0.0017   -0.0020   -0.0012    0.0028
       53 C4     2pz       -0.0000    0.0000    0.0000    0.0000   -0.0000    0.0001    0.0000    0.0000    0.0000    0.0042
       54 C4     *pz       -0.0001    0.0000   -0.0001    0.0001   -0.0003    0.0008   -0.0002   -0.0002   -0.0002   -0.0007
       55 C4     *200      -0.0004    0.0000    0.0000   -0.0001   -0.0000   -0.0004    0.0000   -0.0002   -0.0000    0.0055
       56 C4     *110      -0.0005   -0.0000    0.0000    0.0000   -0.0000    0.0003    0.0001   -0.0000    0.0001    0.0057
       57 C4     *101      -0.0000   -0.0000   -0.0000    0.0000   -0.0000   -0.0001    0.0000    0.0000    0.0000   -0.0003
       58 C4     *020      -0.0002    0.0000    0.0000   -0.0001   -0.0000   -0.0007    0.0001   -0.0004    0.0000   -0.0009
       59 C4     *011      -0.0000    0.0000    0.0000   -0.0000    0.0000    0.0002    0.0000   -0.0001    0.0000    0.0007
       60 C4     *002      -0.0000    0.0000   -0.0000   -0.0001   -0.0001   -0.0013   -0.0000   -0.0001   -0.0000   -0.0048
       61 C5     1s        -0.0000   -0.0000    0.0000    0.0000    0.0000    0.0031    0.0125    0.9954   -0.0173   -0.0165
       62 C5     2s        -0.0000   -0.0000    0.0001    0.0001    0.0004    0.0000    0.0001    0.0282   -0.0003    0.0282
       63 C5     *s        -0.0002    0.0007   -0.0021   -0.0016   -0.0075    0.0056    0.0033   -0.0157    0.0041    0.0602
       64 C5     2px       -0.0000   -0.0000    0.0000   -0.0000    0.0000    0.0001    0.0001   -0.0003    0.0000   -0.0088
       65 C5     *px        0.0001   -0.0003    0.0013    0.0017    0.0041   -0.0016   -0.0016    0.0018    0.0009   -0.0282
       66 C5     2py       -0.0000    0.0000    0.0000   -0.0000   -0.0000   -0.0001    0.0001    0.0002    0.0000    0.0136
       67 C5     *py       -0.0001    0.0002   -0.0011   -0.0003   -0.0022    0.0045   -0.0031   -0.0011   -0.0015    0.0124
       68 C5     2pz       -0.0000    0.0000    0.0000   -0.0000   -0.0000   -0.0000    0.0000    0.0000    0.0000    0.0023
       69 C5     *pz       -0.0000    0.0000   -0.0002   -0.0001   -0.0005    0.0007   -0.0003   -0.0002   -0.0002    0.0031
       70 C5     *200      -0.0000    0.0000   -0.0000   -0.0000   -0.0001   -0.0002   -0.0001   -0.0008   -0.0002    0.0009
       71 C5     *110      -0.0001   -0.0000    0.0000    0.0000    0.0000   -0.0000    0.0001    0.0002    0.0002    0.0009
       72 C5     *101      -0.0000   -0.0000    0.0000    0.0000    0.0000    0.0000    0.0000   -0.0000    0.0000   -0.0001
       73 C5     *020       0.0000   -0.0000    0.0000   -0.0000   -0.0000   -0.0003   -0.0002   -0.0010   -0.0001    0.0021
       74 C5     *011       0.0000    0.0000    0.0000   -0.0000   -0.0000   -0.0000   -0.0001    0.0001   -0.0000    0.0008
       75 C5     *002      -0.0000   -0.0000    0.0000    0.0000    0.0000   -0.0001   -0.0000   -0.0013   -0.0001   -0.0010
       76 C6     1s         0.0000    0.0000    0.0000    0.0000   -0.0002   -0.0000    0.9956   -0.0131    0.0003   -0.0224
       77 C6     2s         0.0000    0.0001    0.0002   -0.0000   -0.0006   -0.0003    0.0272   -0.0007   -0.0001    0.0472
       78 C6     *s         0.0000   -0.0005    0.0028    0.0018    0.0047   -0.0005   -0.0092    0.0066   -0.0012   -0.0302
       79 C6     2px        0.0000   -0.0000   -0.0002   -0.0000    0.0001   -0.0001   -0.0010   -0.0002   -0.0001   -0.0157
       80 C6     *px       -0.0000   -0.0001   -0.0004    0.0003    0.0019    0.0010   -0.0032    0.0015    0.0003   -0.0086
       81 C6     2py        0.0000    0.0000    0.0001    0.0000   -0.0001   -0.0001    0.0006   -0.0001    0.0000    0.0221
       82 C6     *py       -0.0000   -0.0004    0.0019    0.0006    0.0044   -0.0002    0.0004    0.0023   -0.0007   -0.0376
       83 C6     2pz       -0.0000    0.0000    0.0000    0.0000   -0.0000   -0.0000    0.0001    0.0000    0.0000    0.0038
       84 C6     *pz       -0.0000   -0.0000    0.0003    0.0001    0.0005   -0.0001    0.0002    0.0002   -0.0001   -0.0046
       85 C6     *200       0.0000    0.0000   -0.0001    0.0000    0.0000    0.0000   -0.0007   -0.0002   -0.0000    0.0012
       86 C6     *110      -0.0000   -0.0000    0.0001    0.0000   -0.0001    0.0000   -0.0000   -0.0001    0.0001   -0.0031
       87 C6     *101      -0.0000   -0.0000    0.0000    0.0000   -0.0000   -0.0000   -0.0001    0.0000    0.0000   -0.0007
       88 C6     *020      -0.0000   -0.0000   -0.0000    0.0000    0.0001    0.0001   -0.0008   -0.0002    0.0000    0.0004
       89 C6     *011      -0.0000   -0.0000    0.0000    0.0000    0.0001    0.0000    0.0002   -0.0000    0.0000    0.0005
       90 C6     *002       0.0000    0.0000   -0.0000    0.0000   -0.0001   -0.0000   -0.0014   -0.0000   -0.0000   -0.0010
       91 O7     1s         0.0000    0.9947   -0.0000   -0.0000   -0.0002   -0.0001   -0.0001   -0.0000   -0.0000   -0.1394
       92 O7     2s         0.0001    0.0211   -0.0002   -0.0002    0.0010   -0.0005   -0.0005   -0.0002   -0.0000    0.3023
       93 O7     *s        -0.0004    0.0049    0.0011    0.0011   -0.0060    0.0038    0.0036    0.0011   -0.0001    0.2744
       94 O7     2px        0.0000    0.0015   -0.0000   -0.0000    0.0003   -0.0000   -0.0000   -0.0000    0.0000    0.0945
       95 O7     *px       -0.0001    0.0001    0.0003   -0.0000   -0.0021    0.0010    0.0004    0.0002    0.0000    0.0387
       96 O7     2py       -0.0000   -0.0009    0.0000    0.0000   -0.0002   -0.0000    0.0000    0.0000    0.0000   -0.0578
       97 O7     *py        0.0000   -0.0001    0.0002   -0.0004    0.0013   -0.0001   -0.0007   -0.0001   -0.0000   -0.0238
       98 O7     2pz       -0.0000   -0.0002    0.0000    0.0000   -0.0000   -0.0000    0.0000    0.0000    0.0000   -0.0126
       99 O7     *pz        0.0000   -0.0000    0.0000   -0.0001    0.0003   -0.0001   -0.0001   -0.0000   -0.0000   -0.0052
      100 O7     *200       0.0000   -0.0021   -0.0000   -0.0001    0.0002   -0.0002   -0.0002   -0.0001    0.0000    0.0058
      101 O7     *110       0.0000   -0.0002    0.0000   -0.0000    0.0000   -0.0000   -0.0000   -0.0000   -0.0000   -0.0091
      102 O7     *101       0.0000   -0.0001    0.0000   -0.0000    0.0000   -0.0000    0.0000   -0.0000   -0.0000   -0.0020
      103 O7     *020       0.0000   -0.0022   -0.0001   -0.0000    0.0002   -0.0002   -0.0002   -0.0001    0.0000    0.0010
      104 O7     *011      -0.0000    0.0001   -0.0000    0.0000   -0.0000   -0.0000   -0.0000    0.0000    0.0000    0.0011
      105 O7     *002       0.0000   -0.0024   -0.0001   -0.0001    0.0003   -0.0002   -0.0002   -0.0001   -0.0000   -0.0014
      106 O8     1s         0.9947    0.0000   -0.0000   -0.0000   -0.0001   -0.0002   -0.0000    0.0000   -0.0000   -0.0643
      107 O8     2s         0.0210    0.0001   -0.0001   -0.0002   -0.0006    0.0012   -0.0001    0.0000   -0.0001    0.1419
      108 O8     *s         0.0050   -0.0004    0.0004    0.0014    0.0042   -0.0073    0.0008   -0.0004    0.0002    0.1150
      109 O8     2px       -0.0014   -0.0000    0.0000    0.0000    0.0000   -0.0003    0.0000   -0.0000    0.0000   -0.0455
      110 O8     *px       -0.0001    0.0001   -0.0001   -0.0000   -0.0008    0.0027   -0.0001    0.0000   -0.0002   -0.0181
      111 O8     2py       -0.0009   -0.0000   -0.0000    0.0000    0.0000   -0.0002    0.0000    0.0000    0.0000   -0.0247
      112 O8     *py       -0.0001    0.0000    0.0000   -0.0004   -0.0002    0.0007    0.0000    0.0002    0.0001   -0.0071
      113 O8     2pz       -0.0000   -0.0000   -0.0000    0.0000   -0.0000   -0.0000   -0.0000    0.0000    0.0000   -0.0009
      114 O8     *pz       -0.0000   -0.0000    0.0000   -0.0001    0.0000   -0.0000    0.0000    0.0000    0.0000    0.0000
      115 O8     *200      -0.0021    0.0000   -0.0000   -0.0001   -0.0002    0.0002   -0.0001    0.0001   -0.0000    0.0035
      116 O8     *110       0.0002   -0.0000   -0.0000    0.0000    0.0000    0.0000   -0.0000    0.0000    0.0000    0.0038
      117 O8     *101      -0.0000    0.0000   -0.0000    0.0000    0.0000    0.0000   -0.0000   -0.0000   -0.0000    0.0001
      118 O8     *020      -0.0022    0.0000   -0.0000   -0.0000   -0.0002    0.0004   -0.0000    0.0001   -0.0000    0.0005
      119 O8     *011       0.0000    0.0000   -0.0000    0.0000   -0.0000   -0.0000    0.0000    0.0000    0.0000    0.0000
      120 O8     *002      -0.0024    0.0000   -0.0000   -0.0001   -0.0002    0.0004   -0.0000   -0.0000   -0.0001   -0.0003
      121 H9     1s         0.0000   -0.0000    0.0000   -0.0000    0.0002   -0.0000   -0.0003    0.0001   -0.0001    0.0051
      122 H9     *s        -0.0000   -0.0001    0.0004    0.0001    0.0016    0.0002    0.0018    0.0003   -0.0003   -0.0133
[...]
      ----------------------------------------------------------------------------
      Total                  -0.83518220     -4.74785380     -0.58640873   Debye


       2-nd cartesian moments: origin at (  0.51369637, -0.32145117, -0.14261180)
      ----------------------------------------------------------------------------
 Component                            XX              XY              XZ              YY              YZ              ZZ
 Total electronic          -692.82532852    132.14663384     51.89505782   -392.80287200    -53.31839208    -54.21936517
 Total nuclear              645.15971965   -129.59949609    -51.09353035    358.25405985     53.76191162     15.33431710
 Total                      -47.66560888      2.54713775      0.80152747    -34.54881214      0.44351954    -38.88504807



      Cartesian  2-pole moment: origin at (  0.51369637, -0.32145117, -0.14261180)
      ----------------------------------------------------------------------------
 Component                            XX              XY              XZ              YY              YZ              ZZ
 Total electronic          -469.31420994    198.21995076     77.84258672    -19.28052515    -79.97758812    488.59473509
 Total nuclear              458.36553117   -194.39924414    -76.64029552     28.00704148     80.64286743   -486.37257265
 Total                      -10.94867877      3.82070662      1.20229120      8.72651633      0.66527931      2.22216244

--


++ Statistics and timing
   ---------------------

  - - - - - - - - - - - - - - - - - - - - - - - - - - - - - - - - - -
     Part of the program                              CPU    fraction
  - - - - - - - - - - - - - - - - - - - - - - - - - - - - - - - - - -
  1) Input processing                         :      0.03      0.01
  2) Wave function optimization               :      3.37      0.61
       Line Search Iterations    (QNR steps)  :      0.00      0.00
    a ) calculation of the density            :      0.00      0.00
    b ) contraction with integrals            :      3.17      0.57
    c ) acceleration of convergence           :      0.00      0.00
          recursive BFGS         (QNR steps)  :      0.00      0.00
    d ) solution to Roothaan-Hall equations   :      0.05      0.01
    d') rotate MOs C with U      (QNR steps)  :      0.00      0.00
          U=exp(kap)                          :      0.00      0.00
    e') transf. Fck Mat. with C  (QNR steps)  :      0.02      0.00
    f ) other calculations                    :      0.01      0.00
  3) Final processing (generation of outputs) :      0.11      0.02

     T O T A L                                :      5.57
  - - - - - - - - - - - - - - - - - - - - - - - - - - - - - - - - - -
--


      Input file to MOLDEN was generated!

++ I/O STATISTICS
 
  I. General I/O information
  - - - - - - - - - - - - - - - - - - - - - - - - - - - - - - - - - - - - - - - - - - -
  Unit  Name          Flsize      Write/Read            MBytes           Write/Read
                      (MBytes)       Calls              In/Out           Time, sec.
  - - - - - - - - - - - - - - - - - - - - - - - - - - - - - - - - - - - - - - - - - - -
   1  RUNFILE           5.19 .     399/    6486 .      5.2/     46.9 .       0/       0
   2  NQGRID            0.00 .       0/       0 .      0.0/      0.0 .       0/       0
   3  ONEINT            4.50 .       2/     293 .      1.5/    151.4 .       0/       0
   4  AVEC00            0.00 .       0/       0 .      0.0/      0.0 .       0/       0
   5  ZMAT00            0.00 .       0/       0 .      0.0/      0.0 .       0/       0
   6  AMAT00            1.98 .       0/       0 .      0.0/      0.0 .       0/       0
   7  QMAT00            0.00 .       0/       0 .      0.0/      0.0 .       0/       0
   8  QVEC00            3.96 .       0/       0 .      0.0/      0.0 .       0/       0
   9  RVEC00           74.59 .       0/       0 .      0.0/      0.0 .       0/       0
  10  CHRED             0.22 .       0/      14 .      0.0/      0.8 .       0/       0
  11  CHVEC1           74.59 .       0/       1 .      0.0/     74.6 .       0/       0
  12  CHORST            0.03 .       0/      12 .      0.0/      0.0 .       0/       0
  13  CHOMAP            0.01 .       0/       0 .      0.0/      0.0 .       0/       0
  14  CHODIAG           0.10 .       0/       5 .      0.0/      0.5 .       0/       0
  15  DNSMAT            0.84 .       0/       0 .      0.0/      0.0 .       0/       0
  16  DVXCDR            0.84 .       0/       0 .      0.0/      0.0 .       0/       0
  17  TWOHAM            0.84 .       0/       0 .      0.0/      0.0 .       0/       0
  18  GRADIENT          0.00 .       0/       0 .      0.0/      0.0 .       0/       0
  19  SODGRAD           0.00 .       0/       0 .      0.0/      0.0 .       0/       0
  20  SOXVEC            0.00 .       0/       0 .      0.0/      0.0 .       0/       0
  21  SODELTA           0.00 .       0/       0 .      0.0/      0.0 .       0/       0
  22  SOYVEC            0.00 .       0/       0 .      0.0/      0.0 .       0/       0
  - - - - - - - - - - - - - - - - - - - - - - - - - - - - - - - - - - - - - - - - - - -
   *  TOTAL           167.66 .     401/    6811 .      6.7/    274.1 .       0/       0
  - - - - - - - - - - - - - - - - - - - - - - - - - - - - - - - - - - - - - - - - - - -
 
  II. I/O Access Patterns
  - - - - - - - - - - - - - - - - - - - -
  Unit  Name               % of random
                         Write/Read calls
  - - - - - - - - - - - - - - - - - - - -
   1  RUNFILE             28.6/  11.9
   2  NQGRID               0.0/   0.0
   3  ONEINT             100.0/  22.5
   4  AVEC00               0.0/   0.0
   5  ZMAT00               0.0/   0.0
   6  AMAT00               0.0/   0.0
   7  QMAT00               0.0/   0.0
   8  QVEC00               0.0/   0.0
   9  RVEC00               0.0/   0.0
  10  CHRED                0.0/  35.7
  11  CHVEC1               0.0/   0.0
  12  CHORST               0.0/   0.0
  13  CHOMAP               0.0/   0.0
  14  CHODIAG              0.0/   0.0
  15  DNSMAT               0.0/   0.0
  16  DVXCDR               0.0/   0.0
  17  TWOHAM               0.0/   0.0
  18  GRADIENT             0.0/   0.0
  19  SODGRAD              0.0/   0.0
  20  SOXVEC               0.0/   0.0
  21  SODELTA              0.0/   0.0
  22  SOYVEC               0.0/   0.0
  - - - - - - - - - - - - - - - - - - - -
--

      Cartesian coordinates in Angstrom:
      -----------------------------------------------------
      No.  Label        X            Y            Z        
      -----------------------------------------------------
       1   N1        -1.19785239  -0.95476966  -0.10201976
       2   C2        -1.23910279   0.41758392   0.08270217
       3   N3         0.02637587   0.98303711   0.09107635
       4   C4         1.26895846   0.35021984  -0.05901097
       5   C5         1.18804469  -1.09786196  -0.24736035
       6   C6        -0.03456241  -1.67950700  -0.25978335
       7   O7        -2.27754267   1.05106861   0.22165909
       8   O8         2.31319816   0.99895495  -0.02818040
       9   H9        -0.16862003  -2.74443151  -0.39435117
      10   H10        0.05153683   1.98604444   0.22283222
      11   H11       -2.09755889  -1.40848668  -0.11460824
      12   C12        2.47068479  -1.84846356  -0.41508457
      13   H13        3.01881668  -1.47781396  -1.28022088
      14   H14        3.11130548  -1.70742922   0.45439107
      15   H15        2.28475330  -2.91313134  -0.54612822
      -----------------------------------------------------
      Nuclear repulsion energy =  438.46157117

      Contents of RUNFILE file:
      -------------------------

      Symmetry species                           1
                                                 a
      Number of basis functions                165
      Frozen occupied orbitals                   9
      Active occupied orbitals                  24
      Active external orbitals                 132
      Deleted external orbitals                  0


      Reference numbers of frozen occupied orbitals according to the original input sequence
      symmetry species 1                        1  2  3  4  5  6  7  8  9


      Energies of the active occupied orbitals

      symmetry species 1                    -1.424047     -1.387586     -1.302068     -1.237322     -1.105527
                                            -0.968668     -0.912953     -0.890640     -0.768441     -0.761491
                                            -0.705054     -0.668352     -0.659320     -0.633328     -0.611484
                                            -0.588293     -0.564997     -0.552842     -0.549679     -0.505493
                                            -0.472110     -0.440204     -0.426245     -0.347910


      Energies of the active external orbitals

      symmetry species 1                     0.104222      0.176205      0.198069      0.239842      0.254171
                                             0.279058      0.293658      0.312614      0.356956      0.380093
                                             0.395881      0.406415      0.442459      0.481812      0.509323
                                             0.532028      0.552132      0.646566      0.687203      0.707174
                                             0.740262      0.742689      0.776172      0.788436      0.813400
                                             0.838976      0.842415      0.876864      0.907396      0.936262
                                             0.949655      0.971083      0.991199      1.013586      1.037522
                                             1.044058      1.062282      1.092929      1.099207      1.119004
                                             1.124776      1.139330      1.175330      1.194259      1.271231
                                             1.276135      1.313337      1.332604      1.337585      1.364144
                                             1.385631      1.434770      1.442791      1.502534      1.516517
                                             1.567199      1.579024      1.629033      1.635640      1.650384
                                             1.657396      1.696167      1.805220      1.814095      1.876558
                                             1.976747      1.976776      2.024007      2.063824      2.067704
                                             2.085080      2.097386      2.111632      2.137073      2.181835
                                             2.210787      2.211140      2.233224      2.236070      2.286960
                                             2.331675      2.340139      2.405156      2.406773      2.430380
                                             2.469928      2.488163      2.551063      2.576265      2.605313
                                             2.608047      2.679699      2.690142      2.742093      2.748216
                                             2.755563      2.771112      2.780428      2.844047      2.886282
                                             2.901149      2.933220      2.954154      2.960195      2.979736
                                             3.031568      3.124847      3.133730      3.211957      3.213317
                                             3.221382      3.309269      3.334579      3.409145      3.469473
                                             3.516993      3.562354      3.631478      3.759549      3.804877
                                             3.821300      3.830903      4.114561      4.396736      4.424345
                                             4.464822      4.608475      4.646077      4.856865      4.961150
                                             5.076576      5.179902


      ********************************************************************************************************
      *                                               Results                                                *
      ********************************************************************************************************



  Cholesky MP2 Setup
  ==================
The list of    24 occupied orbitals is not split:

    Batch  First   Last #Occ/irrep
   -------------------------------
        1      1     24     24
   -------------------------------
   Total:                   24
   -------------------------------


The following tasks will be performed:
 * AO-to-MO transformation of original Cholesky vectors.
 * On-the-fly assembly of (ai|bj) integrals and calculation of MP2 energy correction.
   [Cholesky algorithm:  2]

***** Cholesky MP2 initialization completed *****
Total CPU  time:       0 hours  0 minutes   0.00 seconds
Total wall time:       0 hours  0 minutes   0.01 seconds


***** Cholesky MP2 transformation completed *****
Total CPU  time:       0 hours  0 minutes   5.34 seconds
Total wall time:       0 hours  0 minutes   5.54 seconds




  Cholesky decomposition of MP2 amplitudes    
  ============================================

 Configuration of decomposition:
 Threshold:    1.000000D-04
 Span     :    1.000000D-02


 >>> Conventional Cholesky decomposition of symmetry block  1, dimension:      3168

 Analysis of initial diagonal:

 Larger than             0.1000D+03:           0    0.00%   Accumulated:    0.00%
 Between  0.1000D+03 and  0.1000D+02:           0    0.00%   Accumulated:    0.00%
 Between  0.1000D+02 and  0.1000D+01:           0    0.00%   Accumulated:    0.00%
 Between  0.1000D+01 and  0.1000D+00:           0    0.00%   Accumulated:    0.00%
 Between  0.1000D+00 and  0.1000D-01:          29    0.92%   Accumulated:    0.92%
 Between  0.1000D-01 and  0.1000D-02:        1541   48.64%   Accumulated:   49.56%
 Between  0.1000D-02 and  0.1000D-03:        1540   48.61%   Accumulated:   98.17%
 Between  0.1000D-03 and  0.1000D-04:          52    1.64%   Accumulated:   99.81%
 Between  0.1000D-04 and  0.1000D-05:           6    0.19%   Accumulated:  100.00%
 Between  0.1000D-05 and  0.1000D-06:           0    0.00%   Accumulated:  100.00%
 Between  0.1000D-06 and  0.1000D-07:           0    0.00%   Accumulated:  100.00%
 Between  0.1000D-07 and  0.1000D-08:           0    0.00%   Accumulated:  100.00%
 Between  0.1000D-08 and  0.1000D-09:           0    0.00%   Accumulated:  100.00%
 Between  0.1000D-09 and  0.1000D-10:           0    0.00%   Accumulated:  100.00%
 Between  0.1000D-10 and  0.1000D-11:           0    0.00%   Accumulated:  100.00%
 Between  0.1000D-11 and  0.1000D-12:           0    0.00%   Accumulated:  100.00%
 Between  0.1000D-12 and  0.1000D-13:           0    0.00%   Accumulated:  100.00%
 Between  0.1000D-13 and  0.1000D-14:           0    0.00%   Accumulated:  100.00%
 Smaller than            0.1000D-14:           0    0.00%   Accumulated:  100.00%

 Number of elements exactly 0.0D0 :           0    0.00%
 Number of negative elements      :           0    0.00%

 - decomposition completed!
 Number of vectors needed:       436 (number of AO vectors:       720)
 Error statistics for diagonal [min,max,rms]:
   -1.942890D-16    9.810933D-05    6.275812D-07

***** Cholesky MP2 decomposition completed *****
Total CPU  time:       0 hours  0 minutes   0.20 seconds
Total wall time:       0 hours  0 minutes   0.21 seconds


      Input file to MOLDEN was generated!


***** Cholesky Grad setup completed *****
Total CPU  time:       0 hours  0 minutes  35.22 seconds
Total wall time:       0 hours  0 minutes  40.42 seconds


***** Cholesky MP2 energy completed *****
Total CPU  time:       0 hours  0 minutes   0.25 seconds
Total wall time:       0 hours  0 minutes   0.28 seconds


***** Cholesky MP2 completed *****
Total CPU  time:       0 hours  0 minutes  45.33 seconds
Total wall time:       0 hours  0 minutes  54.00 seconds


       SCF energy                           =     -451.5175922330 a.u.
       Second-order correlation energy      =       -1.3378990547 a.u.
       ( Opposite-Spin contribution         =       -0.9794232272 )

       Total energy                         =     -452.8554912876 a.u.

       Reference weight ( Cref**2 )         =        0.70387

::    Total MBPT2 energy                             -452.8554912876


++    Molecular properties:
      ---------------------



       0-th cartesian moments: origin at (  0.00000000,  0.00000000,  0.00000000)
      ----------------------------------------------------------------------------
 Total electronic           -66.00000000
 Total nuclear               66.00000000
 Total                       -0.00000000


       1-st cartesian moments: origin at (  0.00000000,  0.00000000,  0.00000000)
      ----------------------------------------------------------------------------
 Component                             X               Y               Z
 Total electronic           -38.47658384     26.44197061     10.34962076
 Total nuclear               38.19000057    -27.99697323    -10.54104736
 Total                       -0.28658327     -1.55500263     -0.19142661
      ----------------------------------------------------------------------------
      Total                  -0.72842203     -3.95242244     -0.48655790   Debye


       2-nd cartesian moments: origin at (  0.51369637, -0.32145117, -0.14261180)
      ----------------------------------------------------------------------------
 Component                            XX              XY              XZ              YY              YZ              ZZ
 Total electronic          -690.76508874    131.91120064     51.75833982   -392.97435826    -53.33742233    -54.14858079
 Total nuclear              645.15971965   -129.59949609    -51.09353035    358.25405985     53.76191162     15.33431710
 Total                      -45.60536910      2.31170455      0.66480947    -34.72029841      0.42448929    -38.81426369



      Cartesian  2-pole moment: origin at (  0.51369637, -0.32145117, -0.14261180)
      ----------------------------------------------------------------------------
 Component                            XX              XY              XZ              YY              YZ              ZZ
 Total electronic          -467.20361922    197.86680096     77.63750973    -20.51752350    -80.00613350    487.72114271
 Total nuclear              458.36553117   -194.39924414    -76.64029552     28.00704148     80.64286743   -486.37257265
 Total                       -8.83808804      3.46755682      0.99721421      7.48951798      0.63673393      1.34857006

--


       Zeroth-order energy (E0)             =      143.5007072222 a.u.

       Shanks-type energy S1(E)             =     -452.8585063339 a.u.


 ###############################################################################
 ###############################################################################
 ###                                                                         ###
 ###                                                                         ###
 ###    WARNING: RunFile label nBas                                          ###
 ###    was used      128 times                                              ###
 ###                                                                         ###
 ###                                                                         ###
 ###############################################################################
 ###############################################################################
--- Stop Module: last_energy at Thu Mar 30 11:33:55 2023 /rc=_RC_ALL_IS_WELL_ ---
*** files: mp2.GssOrb mp2.guessorb.molden mp2.mp2.molden mp2.scf.molden mp2.MP2Orb mp2.ScfOrb xmldump
    saved to directory /home/marlenne/thymine/Thymine/MOLCAS/3.Ground_State/1.GS_non-planar
--- Module last_energy spent 59 seconds ---

>>> END DO
 Happy landing!
    Timing: Wall=920.10 User=657.83 System=258.70
