[Molden Format]
[N_Atoms]
                   15
[Atoms] (AU)
N1          1      7          -2.26361295     -1.80425317     -0.19278941
C2          2      6          -2.34156492      0.78911924      0.15628445
N3          3      7           0.04984317      1.85767091      0.17210936
C4          4      6           2.39798395      0.66181958     -0.11151457
C5          5      6           2.24507908     -2.07465843     -0.46744331
C6          6      6          -0.06531348     -3.17380826     -0.49091939
O7          7      8          -4.30393189      1.98623182      0.41887497
O8          8      8           4.37131099      1.88775127     -0.05325324
H9          9      1          -0.31864568     -5.18622393     -0.74521571
H10        10      1           0.09739049      3.75308007      0.42109188
H11        11      1          -3.96381184     -2.66165408     -0.21657818
C12        12      6           4.66891759     -3.49308988     -0.78439616
H13        13      1           5.70473674     -2.79266364     -2.41926684
H14        14      1           5.87951524     -3.22657361      0.85867467
H15        15      1           4.31755799     -5.50502039     -1.03203277
[Charge] (Mulliken)
 -0.78753757534644020     
   1.0298533535029737     
 -0.83857564457619915     
  0.83726306412002316     
 -0.21437225682968819     
  0.20826985149506427     
 -0.61773662010063823     
 -0.60794745327825339     
  0.19544005234461825     
  0.35301895762152502     
  0.34639275942229997     
 -0.31346459507834368     
  0.14882630245931228     
  0.14885813178034524     
  0.11171167246010483     
[GTO] (AU)
   1
   s   6
  0.417351146E+04  0.183477216E-02
  0.627457911E+03  0.139946270E-01
  0.142902093E+03  0.685865518E-01
  0.402343293E+02  0.232240873E+00
  0.128202129E+02  0.469069948E+00
  0.439043701E+01  0.360455199E+00
   s   3
  0.116263619E+02 -0.114961182E+00
  0.271627981E+01 -0.169117479E+00
  0.772218397E+00  0.114585195E+01
   s   1
  0.212031497E+00  0.100000000E+01
   p   3
  0.116263619E+02  0.675797439E-01
  0.271627981E+01  0.323907296E+00
  0.772218397E+00  0.740895140E+00
   p   1
  0.212031497E+00  0.100000000E+01
   d   1
  0.800000000E+00  0.100000000E+01
 
   2
   s   6
  0.304752488E+04  0.183473713E-02
  0.457369518E+03  0.140373228E-01
  0.103948685E+03  0.688426223E-01
  0.292101553E+02  0.232184443E+00
  0.928666296E+01  0.467941348E+00
  0.316392696E+01  0.362311985E+00
   s   3
  0.786827235E+01 -0.119332420E+00
  0.188128854E+01 -0.160854152E+00
  0.544249258E+00  0.114345644E+01
   s   1
  0.168714478E+00  0.100000000E+01
   p   3
  0.786827235E+01  0.689990666E-01
  0.188128854E+01  0.316423961E+00
  0.544249258E+00  0.744308291E+00
   p   1
  0.168714478E+00  0.100000000E+01
   d   1
  0.800000000E+00  0.100000000E+01
 
   3
   s   6
  0.417351146E+04  0.183477216E-02
  0.627457911E+03  0.139946270E-01
  0.142902093E+03  0.685865518E-01
  0.402343293E+02  0.232240873E+00
  0.128202129E+02  0.469069948E+00
  0.439043701E+01  0.360455199E+00
   s   3
  0.116263619E+02 -0.114961182E+00
  0.271627981E+01 -0.169117479E+00
  0.772218397E+00  0.114585195E+01
   s   1
  0.212031497E+00  0.100000000E+01
   p   3
  0.116263619E+02  0.675797439E-01
  0.271627981E+01  0.323907296E+00
  0.772218397E+00  0.740895140E+00
   p   1
  0.212031497E+00  0.100000000E+01
   d   1
  0.800000000E+00  0.100000000E+01
 
   4
   s   6
  0.304752488E+04  0.183473713E-02
  0.457369518E+03  0.140373228E-01
  0.103948685E+03  0.688426223E-01
  0.292101553E+02  0.232184443E+00
  0.928666296E+01  0.467941348E+00
  0.316392696E+01  0.362311985E+00
   s   3
  0.786827235E+01 -0.119332420E+00
  0.188128854E+01 -0.160854152E+00
  0.544249258E+00  0.114345644E+01
   s   1
  0.168714478E+00  0.100000000E+01
   p   3
  0.786827235E+01  0.689990666E-01
  0.188128854E+01  0.316423961E+00
  0.544249258E+00  0.744308291E+00
   p   1
  0.168714478E+00  0.100000000E+01
   d   1
  0.800000000E+00  0.100000000E+01
 
   5
   s   6
  0.304752488E+04  0.183473713E-02
  0.457369518E+03  0.140373228E-01
  0.103948685E+03  0.688426223E-01
  0.292101553E+02  0.232184443E+00
  0.928666296E+01  0.467941348E+00
  0.316392696E+01  0.362311985E+00
   s   3
  0.786827235E+01 -0.119332420E+00
  0.188128854E+01 -0.160854152E+00
  0.544249258E+00  0.114345644E+01
   s   1
  0.168714478E+00  0.100000000E+01
   p   3
  0.786827235E+01  0.689990666E-01
  0.188128854E+01  0.316423961E+00
  0.544249258E+00  0.744308291E+00
   p   1
  0.168714478E+00  0.100000000E+01
   d   1
  0.800000000E+00  0.100000000E+01
 
   6
   s   6
  0.304752488E+04  0.183473713E-02
  0.457369518E+03  0.140373228E-01
  0.103948685E+03  0.688426223E-01
  0.292101553E+02  0.232184443E+00
  0.928666296E+01  0.467941348E+00
  0.316392696E+01  0.362311985E+00
   s   3
  0.786827235E+01 -0.119332420E+00
  0.188128854E+01 -0.160854152E+00
  0.544249258E+00  0.114345644E+01
   s   1
  0.168714478E+00  0.100000000E+01
   p   3
  0.786827235E+01  0.689990666E-01
  0.188128854E+01  0.316423961E+00
  0.544249258E+00  0.744308291E+00
   p   1
  0.168714478E+00  0.100000000E+01
   d   1
  0.800000000E+00  0.100000000E+01
 
   7
   s   6
  0.548467166E+04  0.183107443E-02
  0.825234946E+03  0.139501722E-01
  0.188046958E+03  0.684450781E-01
  0.529645000E+02  0.232714336E+00
  0.168975704E+02  0.470192898E+00
  0.579963534E+01  0.358520853E+00
   s   3
  0.155396162E+02 -0.110777550E+00
  0.359993359E+01 -0.148026263E+00
  0.101376175E+01  0.113076702E+01
   s   1
  0.270005823E+00  0.100000000E+01
   p   3
  0.155396162E+02  0.708742682E-01
  0.359993359E+01  0.339752839E+00
  0.101376175E+01  0.727158577E+00
   p   1
  0.270005823E+00  0.100000000E+01
   d   1
  0.800000000E+00  0.100000000E+01
 
   8
   s   6
  0.548467166E+04  0.183107443E-02
  0.825234946E+03  0.139501722E-01
  0.188046958E+03  0.684450781E-01
  0.529645000E+02  0.232714336E+00
  0.168975704E+02  0.470192898E+00
  0.579963534E+01  0.358520853E+00
   s   3
  0.155396162E+02 -0.110777550E+00
  0.359993359E+01 -0.148026263E+00
  0.101376175E+01  0.113076702E+01
   s   1
  0.270005823E+00  0.100000000E+01
   p   3
  0.155396162E+02  0.708742682E-01
  0.359993359E+01  0.339752839E+00
  0.101376175E+01  0.727158577E+00
   p   1
  0.270005823E+00  0.100000000E+01
   d   1
  0.800000000E+00  0.100000000E+01
 
   9
   s   3
  0.187311370E+02  0.334946043E-01
  0.282539437E+01  0.234726954E+00
  0.640121692E+00  0.813757326E+00
   s   1
  0.161277759E+00  0.100000000E+01
   p   1
  0.110000000E+01  0.100000000E+01
 
  10
   s   3
  0.187311370E+02  0.334946043E-01
  0.282539437E+01  0.234726954E+00
  0.640121692E+00  0.813757326E+00
   s   1
  0.161277759E+00  0.100000000E+01
   p   1
  0.110000000E+01  0.100000000E+01
 
  11
   s   3
  0.187311370E+02  0.334946043E-01
  0.282539437E+01  0.234726954E+00
  0.640121692E+00  0.813757326E+00
   s   1
  0.161277759E+00  0.100000000E+01
   p   1
  0.110000000E+01  0.100000000E+01
 
  12
   s   6
  0.304752488E+04  0.183473713E-02
  0.457369518E+03  0.140373228E-01
  0.103948685E+03  0.688426223E-01
  0.292101553E+02  0.232184443E+00
  0.928666296E+01  0.467941348E+00
  0.316392696E+01  0.362311985E+00
   s   3
  0.786827235E+01 -0.119332420E+00
  0.188128854E+01 -0.160854152E+00
  0.544249258E+00  0.114345644E+01
   s   1
  0.168714478E+00  0.100000000E+01
   p   3
  0.786827235E+01  0.689990666E-01
  0.188128854E+01  0.316423961E+00
  0.544249258E+00  0.744308291E+00
   p   1
  0.168714478E+00  0.100000000E+01
   d   1
  0.800000000E+00  0.100000000E+01
 
  13
   s   3
  0.187311370E+02  0.334946043E-01
  0.282539437E+01  0.234726954E+00
  0.640121692E+00  0.813757326E+00
   s   1
  0.161277759E+00  0.100000000E+01
   p   1
  0.110000000E+01  0.100000000E+01
 
  14
   s   3
  0.187311370E+02  0.334946043E-01
  0.282539437E+01  0.234726954E+00
  0.640121692E+00  0.813757326E+00
   s   1
  0.161277759E+00  0.100000000E+01
   p   1
  0.110000000E+01  0.100000000E+01
 
  15
   s   3
  0.187311370E+02  0.334946043E-01
  0.282539437E+01  0.234726954E+00
  0.640121692E+00  0.813757326E+00
   s   1
  0.161277759E+00  0.100000000E+01
   p   1
  0.110000000E+01  0.100000000E+01
 
[MO]
Sym=     1a  
Ene=     0.0000
Spin= Alpha
Occup=    2.00000
   1        -0.05166403
   2        -0.00133514
   3         0.00209813
   4        -0.00072414
   5         0.00007508
   6         0.00004797
   7        -0.00160434
   8         0.00193668
   9         0.00034186
  10        -0.00028319
  11        -0.00014497
  12         0.00019936
  13         0.00025359
  14         0.00006376
  15        -0.00006788
  16         0.08896822
  17         0.00223633
  18         0.00053596
  19        -0.00001553
  20        -0.00010254
  21        -0.00001284
  22         0.00060253
  23         0.00382850
  24         0.00047783
  25         0.00001616
  26         0.00005068
  27        -0.00009294
  28        -0.00011695
  29        -0.00002242
  30         0.00002888
  31         0.06578965
  32         0.00167791
  33        -0.00281350
  34         0.00076027
  35        -0.00052295
  36        -0.00010963
  37         0.00407525
  38         0.00058036
  39        -0.00013847
  40         0.00033323
  41         0.00007264
  42        -0.00024084
  43        -0.00036823
  44        -0.00008498
  45         0.00006948
  46        -0.76851662
  47        -0.01787303
  48         0.00711131
  49         0.00032427
  50        -0.00184097
  51        -0.00026202
  52        -0.00389290
  53        -0.00701843
  54        -0.00072710
  55         0.00049061
  56         0.00134847
  57         0.00171495
  58        -0.00030783
  59         0.00003450
  60        -0.00004082
  61        -0.26868508
  62        -0.00636741
  63         0.00181249
  64         0.00116068
  65         0.00248541
  66         0.00026859
  67         0.00127395
  68        -0.00429535
  69        -0.00063895
  70         0.00038876
  71         0.00090577
  72         0.00070925
  73        -0.00008462
  74         0.00000820
  75         0.00003528
  76         0.46891521
  77         0.01143386
  78        -0.00641073
  79        -0.00046691
  80         0.00096144
  81         0.00015200
  82        -0.00249456
  83         0.00058841
  84         0.00021021
  85        -0.00057337
  86        -0.00076942
  87        -0.00107397
  88        -0.00000489
  89        -0.00003162
  90         0.00004799
  91        -0.03228590
  92        -0.00024226
  93        -0.00197801
  94        -0.00008788
  95         0.00037397
  96         0.00005440
  97        -0.00087083
  98         0.00010817
  99         0.00006007
 100         0.00017501
 101         0.00035405
 102         0.00032871
 103         0.00005090
 104         0.00001612
 105         0.00000112
 106         0.30731925
 107         0.00412555
 108         0.00559115
 109        -0.00221611
 110        -0.00115137
 111        -0.00003528
 112        -0.00346156
 113        -0.00111575
 114         0.00003573
 115        -0.00133818
 116        -0.00176196
 117        -0.00197298
 118         0.00027248
 119        -0.00000285
 120         0.00001826
 121        -0.00114156
 122         0.00041552
 123         0.00003807
 124        -0.00021850
 125        -0.00003110
 126        -0.00032118
 127        -0.00019961
 128        -0.00013400
 129         0.00014577
 130         0.00002644
 131         0.00028650
 132         0.00005747
 133         0.00014939
 134        -0.00002861
 135        -0.00001170
 136         0.04700327
 137         0.00141306
 138        -0.00334386
 139        -0.00056473
 140         0.00001691
 141         0.00003219
 142         0.00096616
 143        -0.00062511
 144        -0.00013396
 145        -0.00000968
 146         0.00009590
 147        -0.00006463
 148        -0.00009676
 149        -0.00001651
 150         0.00003035
 151        -0.00017384
 152        -0.00031266
 153         0.00000184
 154         0.00002994
 155        -0.00003880
 156        -0.00017406
 157        -0.00031335
 158         0.00000628
 159         0.00001888
 160         0.00004485
 161         0.00016965
 162         0.00038006
 163         0.00001167
 164        -0.00004314
 165        -0.00000636
Sym=     2a  
Ene=     0.0000
Spin= Alpha
Occup=    2.00000
   1         0.02291165
   2         0.00078399
   3        -0.00054804
   4        -0.00045021
   5         0.00140150
   6         0.00021028
   7        -0.00151264
   8         0.00183586
   9         0.00032396
  10        -0.00027942
  11         0.00031792
  12        -0.00010612
  13         0.00022462
  14         0.00004011
  15         0.00005404
  16        -0.70237938
  17        -0.01610317
  18         0.00273662
  19        -0.00069634
  20         0.00040034
  21         0.00009013
  22         0.00533766
  23        -0.00266200
  24        -0.00063544
  25         0.00035745
  26         0.00082789
  27         0.00154945
  28         0.00042702
  29         0.00013065
  30        -0.00013661
  31         0.06661582
  32         0.00188247
  33        -0.00190519
  34        -0.00124699
  35        -0.00045613
  36         0.00000518
  37        -0.00189614
  38        -0.00000928
  39         0.00009889
  40         0.00014112
  41         0.00001860
  42        -0.00023542
  43         0.00031699
  44         0.00001921
  45         0.00002249
  46         0.17987954
  47         0.00457563
  48        -0.00267822
  49        -0.00004725
  50        -0.00009645
  51        -0.00001050
  52         0.00284234
  53         0.00414297
  54         0.00040048
  55         0.00001255
  56        -0.00000387
  57        -0.00022368
  58         0.00017110
  59         0.00000808
  60         0.00002507
  61        -0.14177455
  62        -0.00463173
  63         0.00937995
  64         0.00111622
  65        -0.00004639
  66        -0.00006574
  67        -0.00361544
  68         0.00121306
  69         0.00035333
  70         0.00018960
  71         0.00008365
  72         0.00028564
  73        -0.00014664
  74        -0.00001348
  75        -0.00002358
  76         0.44911616
  77         0.01115923
  78        -0.00903840
  79        -0.00029229
  80         0.00083995
  81         0.00012685
  82        -0.00280132
  83        -0.00272106
  84        -0.00021337
  85        -0.00062787
  86        -0.00081093
  87        -0.00093433
  88        -0.00002077
  89        -0.00002172
  90         0.00002058
  91         0.46507195
  92         0.00768483
  93         0.00631755
  94         0.00294189
  95        -0.00177778
  96        -0.00039131
  97         0.00328972
  98        -0.00208943
  99        -0.00045096
 100        -0.00202833
 101        -0.00229702
 102        -0.00256769
 103        -0.00034805
 104        -0.00007973
 105         0.00006151
 106        -0.09812997
 107        -0.00120098
 108        -0.00384079
 109         0.00045098
 110         0.00068053
 111         0.00006666
 112         0.00128368
 113         0.00071504
 114         0.00002684
 115         0.00053180
 116         0.00073486
 117         0.00076826
 118        -0.00011303
 119        -0.00000052
 120         0.00000090
 121        -0.00130126
 122        -0.00080878
 123         0.00009230
 124        -0.00019888
 125        -0.00003139
 126        -0.00028310
 127        -0.00036519
 128         0.00006855
 129         0.00014674
 130         0.00001586
 131        -0.00021252
 132        -0.00041793
 133        -0.00001318
 134        -0.00013844
 135        -0.00001767
 136        -0.12686290
 137        -0.00316119
 138         0.00313401
 139        -0.00040067
 140         0.00016724
 141         0.00004362
 142        -0.00041209
 143         0.00046597
 144         0.00008324
 145         0.00032750
 146         0.00027644
 147         0.00018681
 148        -0.00006124
 149        -0.00001690
 150         0.00001740
 151         0.00010573
 152        -0.00046683
 153        -0.00001560
 154        -0.00002647
 155         0.00002181
 156         0.00010586
 157        -0.00046626
 158        -0.00001820
 159        -0.00002014
 160        -0.00002616
 161         0.00013425
 162        -0.00001623
 163        -0.00000164
 164         0.00005455
 165         0.00000734
Sym=     3a  
Ene=     0.0000
Spin= Alpha
Occup=    2.00000
   1         0.12571873
   2         0.00281068
   3         0.00045027
   4         0.00071262
   5         0.00036484
   6         0.00001141
   7         0.00189211
   8         0.00041184
   9        -0.00004465
  10         0.00012043
  11         0.00016818
  12        -0.00063261
  13        -0.00025306
  14        -0.00008072
  15         0.00013933
  16        -0.39973793
  17        -0.00864041
  18         0.00187539
  19        -0.00060401
  20         0.00040128
  21         0.00008537
  22        -0.00126683
  23         0.00028360
  24         0.00010467
  25         0.00019272
  26         0.00033621
  27         0.00107904
  28         0.00023285
  29         0.00008612
  30        -0.00012925
  31         0.08590304
  32         0.00194156
  33         0.00106812
  34        -0.00018856
  35        -0.00058233
  36        -0.00006766
  37        -0.00000479
  38        -0.00087151
  39        -0.00011589
  40         0.00022915
  41        -0.00005792
  42        -0.00048316
  43        -0.00000315
  44        -0.00004457
  45         0.00006700
  46        -0.38822780
  47        -0.00880291
  48         0.00290239
  49         0.00048222
  50        -0.00017820
  51        -0.00004925
  52        -0.00004086
  53        -0.00118143
  54        -0.00015489
  55         0.00011654
  56         0.00029183
  57         0.00094046
  58        -0.00020654
  59         0.00002373
  60        -0.00009041
  61         0.19632541
  62         0.00600024
  63        -0.00370913
  64        -0.00154287
  65         0.00049844
  66         0.00014846
  67         0.00068871
  68         0.00036959
  69         0.00001282
  70        -0.00013573
  71         0.00004020
  72        -0.00046786
  73         0.00017363
  74         0.00000216
  75         0.00007006
  76        -0.62480568
  77        -0.01483177
  78         0.00747572
  79         0.00058719
  80        -0.00148491
  81        -0.00022779
  82         0.00106063
  83        -0.00202450
  84        -0.00032537
  85         0.00069057
  86         0.00103943
  87         0.00160533
  88         0.00011311
  89         0.00007180
  90        -0.00009494
  91         0.31412284
  92         0.00603880
  93        -0.00088227
  94         0.00203067
  95        -0.00124975
  96        -0.00027312
  97         0.00123065
  98        -0.00068084
  99        -0.00015542
 100        -0.00091886
 101        -0.00109390
 102        -0.00132820
 103        -0.00017315
 104        -0.00004838
 105         0.00004625
 106         0.26734267
 107         0.00476531
 108         0.00058282
 109        -0.00171379
 110        -0.00121932
 111        -0.00007113
 112        -0.00148150
 113        -0.00079494
 114        -0.00002709
 115        -0.00081999
 116        -0.00107805
 117        -0.00131100
 118         0.00018921
 119        -0.00000514
 120         0.00002623
 121         0.00186862
 122        -0.00074694
 123        -0.00005131
 124         0.00028036
 125         0.00004005
 126        -0.00038135
 127        -0.00031979
 128         0.00000999
 129         0.00019759
 130         0.00002570
 131        -0.00047306
 132        -0.00006164
 133        -0.00023951
 134        -0.00008324
 135         0.00000162
 136         0.24795769
 137         0.00627641
 138        -0.00466679
 139         0.00050233
 140        -0.00020989
 141        -0.00005470
 142         0.00043713
 143        -0.00056597
 144        -0.00009806
 145        -0.00062415
 146        -0.00048616
 147        -0.00035940
 148         0.00012624
 149         0.00003325
 150        -0.00002685
 151        -0.00023992
 152         0.00064684
 153         0.00002272
 154         0.00006266
 155        -0.00006752
 156        -0.00023998
 157         0.00064604
 158         0.00003058
 159         0.00004326
 160         0.00007869
 161        -0.00030056
 162         0.00031173
 163        -0.00003137
 164        -0.00009540
 165        -0.00001097
Sym=     4a  
Ene=     0.0000
Spin= Alpha
Occup=    2.00000
   1        -0.01515924
   2        -0.00052604
   3         0.00128248
   4        -0.00035910
   5         0.00011897
   6         0.00003471
   7         0.00021597
   8         0.00009708
   9         0.00000152
  10        -0.00012328
  11        -0.00009558
  12        -0.00001810
  13         0.00002066
  14         0.00000927
  15        -0.00001326
  16         0.00233746
  17        -0.00010356
  18        -0.00025554
  19         0.00002561
  20        -0.00001330
  21        -0.00000308
  22         0.00044266
  23        -0.00002147
  24        -0.00002622
  25        -0.00002639
  26         0.00002372
  27        -0.00006406
  28         0.00004778
  29         0.00000398
  30         0.00001114
  31        -0.00717260
  32        -0.00043626
  33         0.00186592
  34        -0.00031450
  35         0.00025005
  36         0.00004994
  37         0.00060991
  38        -0.00050485
  39        -0.00009937
  40        -0.00013752
  41        -0.00014646
  42        -0.00008314
  43         0.00000330
  44         0.00000386
  45        -0.00001010
  46         0.13059964
  47         0.00285322
  48        -0.00249317
  49        -0.00028615
  50        -0.00038447
  51        -0.00003600
  52         0.00219127
  53        -0.00001665
  54        -0.00011860
  55        -0.00004309
  56         0.00002353
  57        -0.00033010
  58         0.00019000
  59         0.00000740
  60         0.00004500
  61        -0.17113434
  62        -0.00504266
  63         0.00800472
  64        -0.00048988
  65         0.00041770
  66         0.00008119
  67        -0.00016960
  68        -0.00096694
  69        -0.00011932
  70        -0.00028566
  71        -0.00005669
  72         0.00029709
  73         0.00024467
  74         0.00006885
  75        -0.00006896
  76         0.14319596
  77         0.00357583
  78        -0.00386579
  79         0.00016011
  80         0.00041913
  81         0.00004700
  82        -0.00025571
  83        -0.00091950
  84        -0.00010876
  85        -0.00016531
  86        -0.00012770
  87        -0.00041592
  88         0.00009820
  89        -0.00000261
  90         0.00003975
  91        -0.01842334
  92        -0.00048367
  93         0.00060842
  94        -0.00012821
  95         0.00007199
  96         0.00001631
  97         0.00008791
  98        -0.00009513
  99        -0.00001727
 100         0.00001471
 101         0.00000901
 102         0.00000225
 103        -0.00001519
 104        -0.00000280
 105         0.00000189
 106        -0.18928442
 107        -0.00368071
 108        -0.00096411
 109         0.00093251
 110         0.00064467
 111         0.00003625
 112         0.00055180
 113         0.00044342
 114         0.00002959
 115         0.00063725
 116         0.00072145
 117         0.00077850
 118        -0.00008814
 119        -0.00000304
 120        -0.00000410
 121        -0.00043798
 122        -0.00026103
 123        -0.00004385
 124        -0.00010070
 125        -0.00001110
 126         0.00015115
 127         0.00028661
 128        -0.00003171
 129        -0.00006176
 130        -0.00000651
 131         0.00016504
 132         0.00017011
 133         0.00004884
 134         0.00003771
 135         0.00000241
 136         0.94419274
 137         0.02410692
 138        -0.01767814
 139        -0.00117876
 140         0.00047679
 141         0.00012576
 142         0.00054412
 143        -0.00041019
 144        -0.00008330
 145        -0.00164773
 146        -0.00160321
 147        -0.00169734
 148        -0.00002918
 149        -0.00000705
 150         0.00001628
 151        -0.00143148
 152         0.00166224
 153         0.00011074
 154         0.00014565
 155        -0.00026353
 156        -0.00143155
 157         0.00166216
 158         0.00013966
 159         0.00007378
 160         0.00027919
 161        -0.00137053
 162         0.00173926
 163        -0.00010368
 164        -0.00033259
 165        -0.00003849
Sym=     5a  
Ene=     0.0000
Spin= Alpha
Occup=    2.00000
   1        -0.04782549
   2        -0.00086984
   3        -0.00172333
   4        -0.00009071
   5         0.00022326
   6         0.00003426
   7        -0.00194813
   8         0.00052412
   9         0.00017206
  10         0.00011123
  11         0.00014235
  12         0.00029202
  13         0.00016212
  14         0.00003283
  15        -0.00003236
  16        -0.02046959
  17        -0.00072023
  18         0.00090712
  19         0.00018409
  20        -0.00022136
  21        -0.00003928
  22         0.00281692
  23        -0.00041128
  24        -0.00020328
  25         0.00005625
  26         0.00009786
  27        -0.00002104
  28        -0.00002997
  29        -0.00000888
  30         0.00002027
  31        -0.02135713
  32        -0.00022570
  33        -0.00204224
  34         0.00020689
  35        -0.00033921
  36        -0.00005606
  37         0.00091773
  38         0.00078642
  39         0.00005588
  40         0.00023264
  41         0.00027266
  42         0.00014530
  43        -0.00005164
  44        -0.00001242
  45         0.00002278
  46         0.01233169
  47         0.00021078
  48         0.00469773
  49         0.00020068
  50         0.00131839
  51         0.00016469
  52        -0.00044433
  53        -0.00264062
  54        -0.00032737
  55        -0.00024712
  56        -0.00073252
  57        -0.00019228
  58        -0.00004270
  59        -0.00000175
  60        -0.00008219
  61         0.88531221
  62         0.02262802
  63        -0.01440732
  64        -0.00049518
  65         0.00054108
  66         0.00009850
  67         0.00074580
  68        -0.00216316
  69        -0.00032806
  70        -0.00175357
  71        -0.00189557
  72        -0.00212295
  73         0.00015677
  74        -0.00000198
  75         0.00002708
  76         0.38371087
  77         0.00899362
  78         0.00084851
  79        -0.00150574
  80         0.00010067
  81         0.00009323
  82        -0.00001370
  83         0.00190061
  84         0.00025366
  85        -0.00100741
  86        -0.00098902
  87        -0.00103599
  88        -0.00018701
  89        -0.00002667
  90         0.00001761
  91        -0.05146419
  92        -0.00144050
  93         0.00215338
  94        -0.00019679
  95         0.00022141
  96         0.00003982
  97         0.00030692
  98        -0.00030329
  99        -0.00005642
 100        -0.00003478
 101         0.00000628
 102         0.00002279
 103        -0.00000561
 104         0.00000278
 105        -0.00000230
 106         0.19460265
 107         0.00400108
 108         0.00079366
 109        -0.00068089
 110        -0.00103216
 111        -0.00010119
 112        -0.00027641
 113        -0.00047864
 114        -0.00004919
 115        -0.00067329
 116        -0.00073182
 117        -0.00091637
 118         0.00007707
 119        -0.00000482
 120         0.00002475
 121        -0.00058370
 122         0.00072825
 123         0.00006232
 124        -0.00004314
 125        -0.00000905
 126        -0.00025249
 127        -0.00021018
 128         0.00000276
 129         0.00004192
 130         0.00000539
 131        -0.00011499
 132        -0.00015790
 133         0.00007203
 134        -0.00006878
 135        -0.00001291
 136         0.13821057
 137         0.00323007
 138        -0.00136954
 139         0.00136458
 140        -0.00091909
 141        -0.00019457
 142        -0.00048259
 143        -0.00021341
 144        -0.00000153
 145        -0.00075121
 146        -0.00047309
 147        -0.00033176
 148         0.00027465
 149         0.00006259
 150        -0.00003735
 151        -0.00009174
 152         0.00088010
 153        -0.00003788
 154         0.00003255
 155         0.00003847
 156        -0.00009180
 157         0.00087866
 158        -0.00004116
 159         0.00004092
 160        -0.00002452
 161         0.00006164
 162         0.00045796
 163         0.00001479
 164        -0.00000179
 165        -0.00000109
Sym=     6a  
Ene=     0.0000
Spin= Alpha
Occup=    2.00000
   1        -0.01659828
   2        -0.00044199
   3        -0.00002924
   4         0.00000296
   5         0.00028154
   6         0.00003738
   7         0.00036867
   8        -0.00021342
   9        -0.00004764
  10         0.00005758
  11         0.00014654
  12         0.00006286
  13        -0.00002720
  14        -0.00000340
  15         0.00001460
  16        -0.17417477
  17        -0.00507335
  18         0.00031153
  19         0.00056722
  20        -0.00018679
  21        -0.00005471
  22         0.00052557
  23        -0.00136983
  24        -0.00021003
  25         0.00034354
  26         0.00032302
  27         0.00041751
  28         0.00003282
  29         0.00000900
  30        -0.00001658
  31         0.00070503
  32         0.00005424
  33         0.00088684
  34        -0.00055664
  35         0.00028666
  36         0.00006732
  37        -0.00161836
  38        -0.00014397
  39         0.00006632
  40        -0.00025628
  41        -0.00013346
  42        -0.00004056
  43         0.00013849
  44         0.00003195
  45        -0.00002222
  46         0.40236230
  47         0.01190710
  48        -0.00490228
  49         0.00122227
  50         0.00121376
  51         0.00009631
  52         0.00152637
  53         0.00333602
  54         0.00036272
  55        -0.00076609
  56        -0.00064915
  57        -0.00100376
  58        -0.00006390
  59        -0.00002352
  60         0.00005905
  61        -0.21920385
  62        -0.00622981
  63         0.00682940
  64         0.00026038
  65        -0.00089851
  66        -0.00013352
  67        -0.00086443
  68         0.00171066
  69         0.00027354
  70         0.00026960